218
 energy: -15.492188326255 gnorm: 0.000640979572 xtb: 6.4.1 (afa7bdf)
P         6.30653607107981   10.12141223176547    6.74773917262133
P         3.38193518583397   10.15697206430094    4.24066498937655
In        5.32404771236142   10.31264989498293   10.71322531153031
P         8.38809245262308   11.53727733456467   14.12362216847989
P         7.40037126199055    9.07351827677195   10.35517522509807
In        3.74545622028973   14.76893603710876    3.98224887233269
In        5.58632963991443   12.38340963095312    6.09094050757262
P         3.67653341280571   12.91125976724583    7.50315001472986
P         7.59545541490237   15.87969538704344    7.15177478064026
P         5.95026584327641   13.68222333023684    3.97014445117023
In        4.83349745896904   15.02618500952717   11.26767980214056
In        6.47027826528517   13.01484789185293   14.04931202650549
P         8.01059343646964   16.86824015504405   14.92714128286595
P         7.05464151524717   14.34055046258154   12.03750213725629
In        5.24891739304136   16.44275847054375    7.35372222330000
P         6.58494363544669   20.85511220789300    8.58418602733639
P         5.32455194421360   17.98108394358793    5.45484700243491
In        6.21771017746760   18.10977461063214   13.88097740247200
P         6.35642997345510   19.27640709407921   11.73011522726201
P         9.73381258972193    3.65740525680887    4.01095291425639
P         9.92201838385692    6.45266641020523    6.65408641236088
In        9.19589654966125    3.58971403507468    8.89801108158316
P         7.72827331311526    5.17899622328400    9.98173101101506
P        10.48173012626273    4.46225919902785   12.30074060340980
In        8.58365933345670    8.80901649560818    1.75294824077344
In        8.81526057742947    5.87025401943248    4.51711849548760
In        5.56220272751071    9.10911386731673    4.61760041929025
P         6.54311753401595    6.84259695323744    4.48791352517725
P         6.85254947931651   10.22243195613264    2.78330976501404
P         9.00659035097845    9.18706309457479    5.52139587413374
P        10.10937503573321    7.23134514693021    2.86381372677903
In        6.91724521686121    7.18645808106067    8.84157579430046
In        9.84949123576861   10.06944258034097    8.73641052123945
In        9.15774992879365    6.43007629030957   11.60987010265176
In        8.74642839378071    9.93107084829013   12.27684597366308
P         9.42027786390258    7.92557410679252   13.56478084085403
P         9.69068791622860   11.61516291014662   10.66298833994670
P        11.68333014086916   10.40609495847940   13.65353504350708
P        10.22350750077605    7.88663208359976    9.87402046405582
In        5.89126509846793   12.31373282560761    1.91294689233178
In        8.85159586826921   14.70913375254013    1.38917523402701
In        8.32990714875195   11.32782983976150    4.48117533473450
In        7.98364090744457   14.66983218283733    5.04947922819922
P         8.71156541512171   12.75082205387243    6.48197413761899
P         8.98160391018196   16.24814059960294    3.32729470823620
P        10.78243055354028   15.31883434278349    6.56887038653480
P         9.46857619510792   12.74888542184324    2.76992442900932
In        8.32661401895296   13.58357272186803   10.06139646069008
In       11.49438498174256   16.32219448518426    9.86950745429096
In       11.10536922373484   12.53326828513755   12.51245142858205
In        9.01210994272436   15.41509135696846   13.21029111230605
P        10.54362360629473   13.94291466480719   14.46564706137061
P         9.65800141147287   16.99451883271034   11.37836253813762
P        12.07707880686047   16.88379628793295   14.20579572123839
P        12.12808969903624   14.13932733819187   10.87515373073030
In        6.80582299054634   17.44036975683687    3.57392867651209
In        9.32102865137032   19.97987224349355    3.28910049901006
In       10.34546370645484   17.30326833373411    5.12677235201751
In        6.84044418631544   19.69530756898793    6.44056677715374
P         9.07063766353496   18.70231372255775    6.68476692791097
P         7.35353486351557   20.96792905673092    4.36937877236049
P        10.82573424959296   21.41112550175239    6.55229797835437
P        11.53222092505981   18.84283449217291    3.49019347472047
In        7.56098048371554   17.69095594564478   10.31602345630298
In       10.51287342186121   19.71708104361295    9.72765552980954
In       10.56530229335778   18.51566732621121   13.14697054633320
In        7.78247746714100   21.13115943518171   12.52125246337847
P         9.13362055079459   20.15502666300062   14.30031169419137
P         9.42282404805347   21.68949475507074   10.74204369975502
P        12.12748599865202   21.52626534425113   14.49849169825510
P        12.23328321476756   19.26016099483911   11.43820092509157
In        8.85476398302717   22.49718675510115    5.60372558437211
P         9.89392540560980   23.54855480604668    3.65455602166735
In        9.07229654653005   23.71358623640563    9.42153407620805
In       11.15606546780832   22.37674936077679   12.40987771847178
P        12.28645693475265   24.00486397466052   10.94266906456173
In       15.31965880442987    4.91609659973964    3.48400154724807
In       12.11991347101934    5.65549749524748    5.85136991929544
P        12.96380636211518    3.59954975176564    6.84593097277711
P        13.68564946805090    6.62423770974922    4.14805231353048
P        15.61599673846631    6.56445027475585    7.44359227789214
In       15.87927193047475    3.39940023623649    9.56187084336058
In       12.47717657962223    3.51297971246001   11.31839559483464
P        13.95762521585361    4.89292489594831    9.87564993072927
P        15.59834532868686    6.33182287525442   14.20430352006292
In       12.37304059134612    6.67399628289819    2.03468623784764
In       14.88391196064043    9.14566371247806    2.19714657539792
In       14.52456976762350    8.19588643688734    5.92699179622186
In       11.24228212875874    8.56246408650274    4.66454662470482
P        12.35996379246832    9.07343587127876    6.84101355430021
P        12.63213745852014    9.79152831060227    3.00112385740220
P        14.82253629029960   11.59702951512392    7.06653964125856
P        16.17251437549755    9.23440163979669    4.32107950775416
In       12.35809676650087    6.71419769341411    9.31772769916430
In       15.26870026999284    9.36253886300556    9.51208620423120
In       14.72199101164943    6.24998612138593   11.87939529402195
In       11.69320137328477    9.10838992587067   11.53649590330621
P        12.50673055892860    7.05191352701850   12.63896526360254
P        13.04590530051420   10.39379003614672    9.85653501833659
P        14.78143603598702    9.50773016958745   13.04939743749585
P        16.46504568833164    7.47007321085054   10.54261365111692
In       11.45493722286999   11.61021789712072    1.81134714807796
In       14.19137041370337   14.39404343951571    2.31369475579293
In       13.72871483670036   11.08855402411958    4.87737866819368
In       10.85131716173078   13.87917887221421    4.54855317573107
P        11.47888642144322   11.76089604338805    5.65248850249163
P        11.95934081480397   15.35885583976776    2.87930368320936
P        13.86356630472848   14.31635572127325    5.88097131578023
P        15.17114427699906   12.32026902358059    3.27032828468048
In       12.23423342628320   12.56964302039383    8.96943400042180
In       14.72386102971767   15.02970698911063    9.21598997175126
In       14.07116525260964   11.56509436022481   11.87073713846909
In       13.26162225296011   15.20578932920989   12.83783990031908
P        13.92997706135674   13.04120184764022   13.87336733152007
P        14.54439590935653   16.56246028279095   11.14755241470142
P        16.34764491460556   15.39944197660470   14.42641011255416
P        15.46062913682884   12.91845858502822   10.28564216386887
In       11.68523971537856   17.39116966585264    1.48956173801375
In       14.23868409007061   19.98001140425220    1.93795287395261
In       13.18930601264386   16.42936874287862    4.80956496576877
In       12.51273690145591   19.95247832533926    5.51115031432948
P        13.01995539275377   17.89328690019004    6.80271939801314
P        13.83420835195571   21.40272452686132    3.93275710811231
P        15.22601861285439   20.55267811978188    7.20780163895262
P        14.47106109482163   17.90710755876219    3.27253412944697
In       14.12548013154344   18.70288368173294    9.93746012272448
In       16.78121164995441   21.28146309340021   10.37579001359444
In       15.79108176934780   17.43279500394990   13.12751532426140
In       13.72201709214279   20.10974788758524   13.26362709066826
P        14.78060312701678   18.69845798582934   14.99353767428391
P        14.56965423831469   21.59908662192037   11.44328922909466
P        16.02187357034018   22.02441942625762   14.81360978143104
P        16.86424867335582   19.12854510582430   11.62237752412687
In       12.13313867647617   22.92979535984196    2.99509680265823
In       14.70310934857265   22.63406056709202    5.94071140125394
P        12.84529665936473   24.14258401587541    6.48788442797479
P        16.07067058964912   24.09444649606150    4.48148904425160
In       12.97876546227373   22.07642374613647    9.60611907941830
In       15.86627583267050   24.74497732028214    9.11138007555205
In       14.70587423475060   23.36693299521711   13.22029448872014
P        13.28685789594601   25.07256014440069   14.26655211207219
P        16.18577941193519   24.38172925840448   11.48595690585294
In       17.54566374923531    5.41543169519808    6.53306658580230
P        19.26462747252581    6.35804389780738    5.07270959323227
P        21.84959186301915    6.67312422541243    8.15184215123201
In       17.94322129874712    5.75816055958172   13.88311365420587
P        19.63847240175838    6.74259845808144   12.38531048412895
In       18.18827971704980    7.98952647675419    3.60396373835899
In       20.81516026697723   10.80027770207173    3.86141747823720
In       20.29303707356775    7.91696885353581    6.72541815901729
In       16.99797754865072   10.79529721158347    6.10828002134069
P        18.27134526414092    9.13449079348320    7.41507240841057
P        18.66727053691899   11.83509309490351    4.53311045709594
P        20.56874148135996   11.59898922289342    7.81493433776931
P        21.89425737019304    9.10389071325785    5.23947122956726
In       18.62378992301546    6.33305424902838   10.19581096003466
In       21.00841166576453    9.31493701997616   10.55184023379503
In       20.32139790286134    8.43552850318215   14.06199356073651
In       17.08784478352750    8.71727298904005   12.63809375835712
P        18.09104926913290    9.08623376168366   14.87328272877297
P        18.66448853849134    9.88270978600529   11.08401717570613
P        20.44801496189852   11.78131479865294   15.20378280691968
P        22.14777001086294    9.53782949035224   12.73996561098985
In       17.39456843720923   11.68720389730433    2.40895381331721
In       19.94949918206312   14.47401492910083    2.64325831325136
In       19.54513168272930   13.31345735582592    6.36300323856908
In       16.14166906075268   13.69240288791739    5.14976501900288
P        17.34089115047017   13.95770382843484    7.30920781278553
P        17.73946492042217   14.89132815528962    3.66109448913130
P        19.71748703203600   16.47256724258390    7.78012873248886
P        21.12909741180815   14.52387575651974    4.82172027782938
In       17.68305710977372   11.86567574778328    9.97473774691714
In       20.05367407110194   14.37494504748987   10.41880425073490
In       19.42377581947827   11.34925034965292   12.99289481866504
In       16.41546580935107   14.11857202212019   12.30117235538306
P        17.10951951647390   12.06173395499158   13.47608869048734
P        17.85692653390713   15.46441394958542   10.76744052263076
P        19.51402847067849   14.68027335476885   13.88660372646057
P        21.13602043793277   12.44662878822500   11.54305393633440
In       16.72402408441504   16.97342778466019    2.75471000808499
In       19.19033499575896   19.76317155789943    3.44537026291858
In       18.54806374380217   16.31469557558637    5.58994881241431
In       15.55870227984484   19.09136399030818    5.22808912512202
P        16.26584691249483   16.96668668132488    6.25531425392730
P        16.91462019808390   20.67929261557131    3.85303332203483
P        18.58352418976567   19.58225702676708    6.89126807516876
P        20.19954966567446   17.65116223814418    4.27667294656430
In       17.24922895735601   17.61365507765277    9.70095229626306
In       20.20779128631994   20.12924546693538   10.89468840569290
In       18.85316404911930   16.74950373979390   12.72025597451205
In       17.45512306737082   20.33147399501163   13.73620359414318
P        18.45285497466302   18.25879013114800   14.65457891351484
P        19.32391364786912   21.61925187037647   12.65497310136351
P        20.88358255756486   17.95899698353547   11.87012289950234
In       16.66432281759993   22.76277147771775    2.53837263549179
In       17.90793570323347   21.73220162738978    5.92007454007357
P        19.62660683832972   23.25017047108765    5.12263519905630
In       18.50726775088730   23.88169183289275   12.08555797101646
In       20.71421908534411   21.89259729773514   14.65575374877557
In       22.62452968396565   10.44479579554272    7.17910584195079
P        24.14444340009219   11.83376848330840    5.85637962127770
In       24.23998428987514    8.31605731342925   12.34189713582821
In       22.72923519238923   11.19683968248917   14.50416517955223
P        24.48484570088199   12.23299892042071   13.12934007280056
In       23.39490732320197   13.60947148974753    4.39476784338293
In       21.91761884340633   15.87579000387923    6.78815844620626
P        23.07877338354601   14.17109888672420    8.10877419814468
P        23.55463370885466   17.17614432793216    5.46688651089436
In       23.46706279925083   11.85544422271153   10.94627897666233
In       25.49311747981039   15.80616543082098   12.74035562818456
In       21.85027523557520   14.14052040476470   13.29464672505291
P        22.85629967094857   14.67794797390345   15.47766689679763
P        23.43367955848993   15.13021883443400   11.64061347705109
In       22.45795317948008   17.37912318038909    3.30964553044767
In       20.89237625200834   19.01045072376911    6.28138213495448
P        22.35679607806138   20.72301920665182    5.37733709757824
In       22.63966430706404   17.08071237293759   10.37560711815003
In       22.09504156765546   18.19191924851342   13.98684601458240
