46
 energy: -2.705005219536 gnorm: 0.000666939897 xtb: 6.4.1 (afa7bdf)
In       10.93286442264095    3.00346882504368    2.61865736180616
In       10.54112660564271   -0.35834375648788    5.48911409211119
In        8.61996148907136    2.84801532099926    5.75094091173939
P         9.84864885854120    1.27811984890817    7.14742916631322
P         9.69497062673293    4.36869047929333    4.20225799801331
P        11.53444559672908    4.49013801244926    7.27119241947141
P        11.82379938174173    1.11862679348986    3.96241320753958
In        7.48170580911637   -1.62324540571134    9.03156461649604
In       10.81126958372139    4.18013099041244   11.12993827078090
In       10.52836090627351    1.34763929927731   14.22890887098498
In        7.71477588581400    2.43923823170784   11.00022810617079
P         8.39618201653759    2.00038314582704   13.27730102278779
P         9.28222247875666    3.37486888536999    9.39807345973175
P        11.79395762867225    4.82984534759180   14.73846662326279
P        11.66948586844298    2.08554033581375   12.15345575226021
In       12.64133060674832   -0.51092050663825    2.31999113700693
In       14.42472941679012    2.77452630082045    2.76440541713183
In       14.74608270002605   -0.42340880099499    5.83936988439905
In       12.47250749199719    2.84347673633450    5.69340635944754
P        13.38019281978482    1.07144398258592    7.16402340668161
P        13.57234486829263    4.52473817312689    4.23451574304541
P        15.30653235398250    5.01703636834290    7.35319333637187
P        15.67286005857788    1.27048072540897    4.30571981409279
In       11.16935002100234    0.26647324553791   10.59503133476856
In       13.91971057028253    2.94878312979626    9.97890729415113
In       14.17840337965861   -0.22375976260851   13.11736075755087
In       13.35022939507600    3.48681790283078   13.40739600902566
P        14.40974476718165    1.62839633892098   14.66621202256427
P        14.12842498348818    4.85603412299446   11.48230930124100
P        17.00057387554689    4.11608486313366   14.23222502414534
P        14.96830900597296    1.01808456840639   11.13107123781002
In       17.10473274301897    0.19010401908613    2.63614914439401
In       19.25687717548989    4.13431128637290    4.24065810638022
In       18.77391733584203    0.60777458251144    6.10576813695496
In       16.02118095868121    3.03276381237687    6.07793459097361
P        17.80049782829393    2.23557610629104    7.61723035987098
P        16.85613090819572    4.45797415371639    4.23507087489999
P        21.98039149955287    3.49723037621419    7.28566704866448
P        20.02888829901292    1.85284255893856    4.44940221761648
In       16.26319627850295   -0.49718120904039    9.72077396541690
In       19.46463976178915    3.82809847317940   10.16679224592806
In       19.56154898569065    0.20864535554556   11.57760240643056
In       16.47858681920916    2.65345134515253   12.32615289697662
P        17.68606212725838    0.62847314989492   13.04303222094522
P        17.10928869442699    4.26615103333735   10.56390406163355
P        20.37170961219088    1.60997371438791    9.77562176401036
