168
 energy: -12.027925947096 gnorm: 0.000122785977 xtb: 6.4.1 (afa7bdf)
P        10.78442425743579    6.35384512024736    5.31112142902191
P        10.78426870210266    6.34412816107039   10.09601832768496
In       12.01375414158202   11.26154519227648    2.77876150310734
P        10.57967322254551   12.78741230038031    4.01989256129429
P        14.35816764868098   12.05653899724319    2.60451900294824
P        12.50287941428855    9.29969626756355    4.18255918492000
In       11.22452205866858   11.21509230103282    8.03070884108985
In        9.64355488839670    7.92845050553924    6.81004832967611
In        8.01822809497949   10.93908465317239    6.81256893736701
P         9.91746329747292   10.03979035080564    5.52503686812858
P         9.03894219327451   12.23986449224868    8.67138146585265
P        12.88947950251931   11.77461146017644    6.26953105976647
P        11.04805350220237    8.81972318291682    8.68109523415475
In       11.21611694051773    9.72460955868479   12.76810884235140
In        9.12315206730618    7.60944457578354   11.47014062246813
In        7.41517617887852   10.85811495350234   11.94381368922030
P         9.03359237425635    9.85874840176186   10.37453497563525
P         9.04544844790246   10.45372023811821   13.75139784467520
P        12.70415062359440   10.42091276642386   10.91499010264332
P        10.93829162182641    7.25758887174910   13.14819621835620
In       11.79901777160400   11.55221814133778   16.52871930156422
In        9.09443934654395    7.96150285990367   16.61363529396480
P        13.89464513943127   11.70444207215348   15.20244916343495
P        11.00277816776664    9.30136171813775   15.90062394752584
In       13.63774040949885   14.27849087982007    3.45871891426735
P        12.15365485298139   16.14508494333304    2.99741914924307
P        15.83075578341892   15.25364667677357    3.97912809263707
In        9.07422866606048   14.27139770300613    7.25140950204328
In       14.97657184759201   17.38199172627993    8.33415822624179
In       12.95117241544997   13.90394471354424    7.58617076899661
In       11.60049854509587   16.75687135067324    6.82839003757486
P        10.97767683585896   15.11006881344737    8.59785768679077
P        13.94851384434695   16.87601069223932    6.16309924588215
P        17.28778397474637   17.46299025268177    9.22625389569695
P        14.89034702461720   14.92782479312127    8.75322837626874
In        9.82337258476398   12.79743763748491   13.48430477443632
In       14.58209940957362   16.35520508089700   12.28140302282879
In       12.71600222623002   12.84207723018882   11.58626999849059
In       10.87242746076797   16.07368309837509   11.99609264560389
P        10.39787364143907   13.74406720152590   11.26613481168088
P        12.86916824320842   15.86705423272255   10.55971865114288
P        16.60406893650218   17.75213836395747   12.23336280245625
P        14.18177010235994   14.07284372360379   13.22014762256097
In       16.70860981583357   16.93023121618635   17.03394359517860
In       14.14754481018018   13.87816280345411   16.43014636522581
P        15.76268945103456   15.43974799031931   15.34367054940151
In       16.15899261726870    5.31913359342020    2.79744855366036
P        14.21782597819877    6.31124136017278    3.95707911546364
P        17.99049931832177    6.82505104138630    2.07268576510649
P        16.61733685673284    3.15016293108057    3.81926092252962
In       15.07954246467958    4.26798929764324    7.80679110540497
In       13.70428433370660    1.52388087115375    6.32757143251454
In       11.81484249373252    4.46099874839682    6.48999420477209
P        13.76088892035228    3.68827963150744    5.15371411009086
P        12.95544049152009    5.39501394685535    8.51360857438330
P        16.56390946690302    5.40524224919961    6.14652224135595
P        14.95381605198500    1.83575825733431    8.46927389756678
In       15.67774413612745    4.75871984341547   11.24415307864375
In       13.54321003248156    1.20547900560052   11.62065678832026
In       11.37067746607415    4.38221342279072   11.52884256647335
P        12.95297289059897    3.06186636788234   10.11430235151779
P        13.58999949242481    4.87142721060363   12.60622854404191
P        17.18926521770051    6.74094253106400   10.91867135414204
P        15.78233380348983    2.26454567857178   11.40278658428275
In       15.33609461601942    6.05905343411470   16.15968898567477
In       11.87784413144305    4.71394774107603   16.17127436583534
P        13.10556829275100    6.59862847122076   15.16437021234335
P        17.82806829452285    6.25825930717325   16.14888827935526
In       14.61821997023993    8.60103624976621    3.11771048908322
In       18.61904059410918   10.72789375039237    2.32625712220720
In       18.47344997024918    7.97208139262272    4.20959865845292
In       16.06443200148581   11.62516359309346    4.35398944070611
P        16.37095233671250    9.19018699102262    4.76700519852385
P        18.11339547044975   12.82887117641059    3.57605950286418
P        20.09446353891071   10.76753337851249    0.33098859654882
P        20.32410855120964    9.62746869214263    3.78333834155478
In       12.91788873050240    7.66934175093464    7.43334599662107
In       18.24177169068041   10.83064019512713    7.22951440319452
In       16.43215686790732    7.38100099901320    7.67821626675452
In       14.64413294483354   10.77738590812436    7.75347750601575
P        14.66479291424725    8.59175662252241    8.95655990144247
P        16.60732325635094   11.91710191629995    8.76934912589436
P        19.96798010339353   11.75010351640067    5.63288225999731
P        17.97679116588629    8.95228395183588    8.86977021266465
In       13.11337358787302    7.20951000457252   11.88615929156149
In       18.51193107178507   10.52778897688728   12.61646074391783
In       16.43291818010702    7.51126234676895   13.15618394870099
In       15.04621933080955   10.26328005367990   11.77973555630318
P        14.25133727355861    8.68141680043181   13.53908366963645
P        16.37599641768260   11.40923435657536   13.54945389680729
P        19.35186312225878   11.21548975082808   10.35936740380099
P        18.25788075308096    8.71188376539526   14.32670383257221
In       12.84588292670715    8.15394956062974   17.14311862629466
In       18.95959762439973   11.21347603850649   17.79430703830232
In       17.47235656083523    7.91891770701318   17.98179397353997
In       15.53773073122574   10.45258916488175   16.58302647786226
P        15.07641307121255    8.60044170525751   18.16488928499395
P        16.70953911672843   12.27003664327966   17.79286036005384
P        20.22960574045318   10.80151245533215   15.67903676548934
P        19.33729073207602    9.12304770027825   19.09469464021949
In       16.76159139287403   14.15429003234818    1.97210106308766
In       19.41139221331890   13.14619749744247    0.10535949995294
P        17.00231941810549   12.62410907451104    0.06604875514087
P        20.15462036574170   14.59490093215029    1.91285125918879
In       16.46859137196314   13.82980525659231    7.17490951542705
In       21.13127035605217   16.59067076815581    5.08255825181004
In       20.12996885694123   13.78191744666407    7.08414597463488
In       18.00992405737401   16.85940967688810    6.93106057968271
P        18.35197586782926   14.86163115063512    8.41175947589076
P        18.78192693806075   16.03376460219425    4.73768578037972
P        22.00403155475601   15.40408975784068    7.03812438571976
In       16.27145522899954   13.39333501519859   12.01232482139390
In       22.47869687116041   15.79309885954370   10.98851001844466
In       19.86167418027832   13.48560061979679   11.27416407997286
In       18.88740535642728   16.84123273888356   12.18553820178487
P        18.28938517595202   14.53795591834488   12.87772473023965
P        20.30508913041684   16.57261248404473   10.18973799205786
P        21.90153084906991   14.00256186421256   12.57422505836470
In       17.45090644792611   13.64352749628605   15.86447104611809
In       21.50348163814045   12.86777819723524   16.23054306163755
In       20.50026403724736   16.60711361117173   15.70153314602682
P        19.68110303876826   14.48813157511316   16.55162188739367
In       19.56909603044990    4.91480264284403    2.23300186250637
P        19.77267336432986    2.52358945442773    2.66024076702286
P        21.15729088092870    6.07310370307271    3.72660664860391
In       16.89726886053402    0.70105456716838    7.43262022949198
In       21.82857094244038    4.76141000976883    7.52227565499734
In       20.51663780371689    1.69307632840181    6.82747238057697
In       18.36831164098288    4.35332142527309    7.52737163453312
P        18.68361575351079    2.05463247355649    8.44134962372923
P        19.96127534798198    5.70486652522066    8.87992373081896
P        23.97499040251898    5.52130787379540    8.45541953544064
P        20.90404774930647    3.71171470172379    5.48377570900250
In       16.14147701898486    2.70524751802862   13.82206361997232
In       22.28154414485082    4.68963100250613   11.83287722930184
In       19.02105198472141    2.49432023059774   12.21533396733272
In       19.07290281476501    5.74023038222253   12.20835409456711
P        18.16808479241873    4.13159920515324   13.88178552890458
P        20.97721346058883    5.42750641682828   13.78994192747450
P        21.87450835596065    6.94143504757914   10.87616820982370
P        20.64601885327676    3.33187799373037   10.56981689389256
In       21.63218006543670    3.72383900363119   17.06811201351286
In       17.87972173445637    4.29110099477201   17.66233469746222
P        20.09204863082315    4.81541012025044   18.58658762298698
In       21.16310018983514    7.96510221372351    2.12501000951048
In       22.16843163801783   11.28045443913096    1.57814037879412
P        23.32368813239253    9.14840988269360    1.97580533589047
P        22.22190149431455   12.56878572239772    3.63431844206809
In       19.78884287649890    7.80869659387699    7.56609745478031
In       24.84685656044190   10.23735641823420    5.74057876625382
In       23.42187767782495    7.70055550922195    7.44541787641227
In       21.78821922503326   10.84593405662082    7.08400110549745
P        21.68638901935138    8.97448013196141    8.69226326473142
P        24.09083920476797   11.57131308315589    7.67375138790369
P        23.31252716790474    8.43613433998684    5.09961141641910
In       20.56615798398372    7.80184000962114   14.33754212696279
In       25.90523674130520   10.77873859735273   10.86544623226520
In       23.56113516858498    8.16351103293042   12.19947554489431
In       21.65183441369107   10.77608177252942   11.31724641304443
P        22.02247714890314    9.63036557051828   13.49599402655045
P        23.76971105719095   11.99793689987494   10.80434801222726
P        25.05804120248144    8.57808752457990   10.28463824564236
In       20.80139696477745    7.12090304426604   19.12459463290554
In       24.22586037941407    6.58168853245875   16.07899006147905
In       21.94522720145140    9.59110176216836   17.03622370330245
P        22.92282891670941    7.49673849909403   17.90444437964758
In       23.95702093933187   13.93490195664966    7.04239173393372
In       23.75889762833742   12.52384412285905   13.21968423652072
