180
 energy: -12.800320417449 gnorm: 0.000117557959 xtb: 6.4.1 (afa7bdf)
P        11.40273048337367    6.13388474224109    5.80918540710485
P        11.50536464726208    6.24990153481096   10.73526208716159
P        11.62657903200090    6.28324136117638   15.63893842231426
P        14.94338344811609    9.09698627117953    0.54180075062884
P        11.53551371820821    8.45150233168469    3.44122126021590
In       11.81831935783263   10.58908815936068    7.49516527016812
In       10.02606840334044    7.40931127572024    7.38165817870156
P        13.42773517874306    9.49119919321641    6.00975613790358
P        11.65065878842764    8.53634309796807    8.88428233626715
In       11.94664097916289   10.70390202113237   12.33881151912469
In       10.14033437200275    7.61758767542087   12.25795078546496
P        12.94411135852650   12.58556248237874   13.50019294495531
P        13.59749820054849    9.73419182395283   10.76633636498278
P        11.71094149819390    8.70975632221055   13.82423472853709
In       11.99022362667668   10.62171512000900   17.45060652334555
In       10.38792114365920    7.36747558390760   17.47604627800205
P        13.70388030831577    9.91273684451510   15.85323277894458
P        12.12175170382675    8.55870763638119   18.77272203012631
In       14.97305348843950    3.81021657021205    2.47910810228412
P        13.22925061381186    4.80646142044561    3.93403530937352
P        17.05198553596880    3.44153341955527    3.84008559393291
P        14.34728028416213    1.42489973458408    2.59653759945381
In       15.08985501506949    4.07658603748957    7.26959509758457
In       13.70026011606165    0.83015432775932    7.14426654850158
In       11.54686115298459    4.15328490418204    7.27341084785438
P        12.24036934166391    2.27824909161410    5.83765769093461
P        13.32240123073573    4.80538736389314    8.88289333369031
P        17.26179480099146    4.38690465974635    8.47024114302112
P        15.35227240830880    2.08880076069121    5.78449368305515
In       10.16589053527885    1.59489221906046    9.98017235239683
In       15.08772927415252    4.72437127764276   11.83091989339453
In       13.60313161604014    1.53907669636476   11.48232829851679
In       11.46531954877823    4.37646511100170   12.34402806622501
P        11.25882231970798    1.92033990263615   12.12369992851709
P        13.41005986392288    5.25166670649329   13.61188459766035
P        16.98553878318029    5.19865171452560   13.37947249032791
P        15.34050549602593    2.80943535196646   10.24664675039176
In       15.10525786737055    4.18040131855030   16.28750673847759
In       14.20805988291117    0.86912938008822   15.29247946343557
In       11.83478676119708    4.21628779823005   17.01151694133375
P        12.33691250860229    2.42415550021434   15.39822853348122
P        13.87000354644418    4.79976867844960   18.37166699771021
P        16.94722434091575    3.55752634685139   17.87627464422497
P        15.68286147351364    2.66120214376262   14.40228841034591
In       15.03815512808763    4.12438998658837   21.34074111031511
In       13.26829947694316    1.01177666152013   20.90766399300216
In       10.82475325079854    4.55855704459732   21.13732506072983
P        13.02069547846447    5.58622739184356   21.18280476096060
P        17.12935065432979    4.45897098725166   22.61845020488612
P        15.01029978243446    2.22650026057287   19.69921145058520
In       13.29220439299234    6.92994954610578    2.67970897827060
In       17.88726278606558    7.75870085160192    2.25050865677401
In       16.58987344801723    5.76983620744848    4.68463509593062
In       15.31043806133248    9.78614140003632    2.83843588067261
P        15.07538558859143    7.72106300577283    4.22595144081643
P        17.74392965846144   10.14701427393191    2.82683672062561
P        19.39834232692359    7.42738821675705    0.34439761468324
P        18.66908773967694    7.15085588786032    4.53613812764035
In       13.63703637426875    7.16755973350345    8.17725341126778
In       18.83385224769596    9.92500899947809    7.30784262439421
In       17.53208029642623    6.89048746227614    8.58282354225371
In       15.30673878798899   10.03117404866367    7.54888491916996
P        15.56724026600720    8.26877141465536    9.31878718485789
P        16.94321266124537    8.86994726054020    6.07703537363949
P        20.49194589803562    9.18260200910797    5.60760296174321
P        19.45461461137376    8.40711933214505    9.17515325371844
In       13.82837401249124    7.63655444905911   13.04173643937653
In       19.26885845448400   10.82658335696829   12.07501777424183
In       17.62185098874820    7.60411272567098   13.08148153454683
In       15.52934085941239   10.47369315637447   12.16466420309532
P        15.72559290151064    8.89006209421016   14.10226102358499
P        17.46741652657308    9.70429283789123   10.78572871382414
P        21.17782604990426   10.83713966228403   10.50412105144196
P        19.54751508752152    9.03916090899239   13.78071794783425
In       13.83241862074982    7.17526418513735   17.61984046574606
In       19.02169669601293   10.38558399216263   18.25524862078775
In       16.79070595037217    6.00721215825045   18.49129096839798
In       15.83215819423326    9.77028224901936   17.15218350782870
P        16.08075594872916    7.33842180451300   16.49715295735183
P        17.94206245636969   10.44608765953504   16.04100780756998
P        21.46465095187120    9.93085292424617   18.30121589977254
P        18.06695538417739    8.14306805778185   18.89400534655788
In       13.77851560040871    7.65883706122427   22.27232499902090
In       19.56962279463200    9.35246781808029   22.71372831057713
In       17.49339427743323    6.85978448657860   22.10795997677966
In       16.23387602486701   10.42527017032180   21.33744741645010
P        15.72696506949243    8.06855989249842   20.82271453146770
P        17.30668804224872    9.95556479598670   23.46208404517335
P        20.87369001221287   10.86249950374005   21.27031397750211
P        19.76467837335646    7.37545518107445   21.17814407907904
In       15.82227358193949    0.91417413313144    0.73352030002410
In       22.50149652356087    3.43740536078502    2.38312424069805
In       19.38195767792440    0.74384131459596    2.14226973653065
In       18.49663836417602    4.20855060175771    1.94026285258335
P        17.95976210390095    2.11977715668840    0.69821527761684
P        20.82909660989384    5.04092146215872    1.49532219017771
P        23.65529085599925    4.86028740213665    4.05689453203986
P        21.40259543974766    1.44200086866786    3.28947582243143
In       17.41033688428472    0.88334599780307    6.42709860230966
In       22.91420463347430    4.38981630887186    7.83179589944529
In       20.95723844874970    1.51032851951145    7.21663249960847
In       19.25049968172112    4.57094842127412    6.95858160669720
P        19.19944677368574    2.42051930458057    5.71038619608846
P        20.74335297044444    5.04983419683692    8.89128485971598
P        24.60155344370763    5.26512715733602    9.47876843208888
P        22.35493415926145    3.00759207402146    5.82163195355216
In       17.24376550471400    1.34290480172631   10.87182560666360
In       22.64420499034331    4.92778501665801   12.37310414786862
In       20.94850722072038    1.55607112072067   11.32683975338351
In       18.67448067911398    4.77488223630607   11.57791910279621
P        19.13873531280802    2.77665754995896   10.14690995308348
P        20.37807739439023    5.54565008910857   13.21703143793723
P        24.01110955014310    5.67449228057357   14.34215435622996
P        22.82779417031956    3.05141824212544   10.74005024897170
In       17.58501404506386    1.20074444043718   15.06411276547624
In       21.77370038259637    3.85177989553020   17.46039436143500
In       20.89554925207006    1.36786823502757   15.28271571452658
In       18.59297974797599    4.45003842137173   16.22392598578475
P        19.20128086950816    2.94881603395046   14.35320990370461
P        19.82983095411055    5.22177079445518   18.24505627702482
P        23.18385337940996    4.79762353446737   19.27907640895547
P        22.51587283937600    3.24930942076068   15.14531690661628
In       17.15851490890367    1.05617939386512   20.09177638915797
In       23.36280991730771    3.12387950000851   22.80603031073415
In       21.09755059952660    1.15273226213168   20.50580656999562
In       19.24734442065357    4.03175490366002   21.39874520310201
P        19.18146834813515    2.36950116709419   19.52953478873019
P        21.12826982655150    4.14873010495302   23.00694794797518
P        25.49409767615629    4.36480510229373   22.89669706788613
P        23.36993243088639    2.09947668339481   20.55690628620261
In       20.74563151627146    6.02302307637312    3.76153150045062
In       24.31202029985609    6.81363753484344    2.69138247918313
In       21.44123936030651    8.32497675056846    1.40936690609033
P        22.33791928268099    7.96470732110714    3.72804263931839
P        23.02419733562962    7.65424161650599   -0.31717658735979
P        25.85717861857395    8.24417350970006    3.92570208165369
In       21.35728902911673    7.29549484661287    7.96972366246841
In       25.83284339935436   10.61155894786152    7.64113767276964
In       24.60680628646395    7.58252868051616    8.57704125160712
In       22.55040669922514   10.17352787995388    6.57189214557136
P        23.31850409464970    7.78431741861944    6.45873935029255
P        23.62262537826948   10.75100794651625    8.72489598365808
P        26.75002310546355    8.77118524359648    9.01455018392848
In       20.95560195470331    7.74750386653713   12.19067887584715
In       26.90289921153005   11.08408992331744   13.17757816842232
In       24.60530504588546    7.93501393628151   13.48122359676057
In       23.06473784696243   10.61489151358264   12.07722276695182
P        23.26738377455860    8.21179338633883   11.41411595256315
P        25.38649491858828   10.89131284659208   11.27139833904774
P        26.50245899140518   12.77529751653240   14.86533366910137
P        26.75738542345113    8.86657668873718   14.24281190599478
In       19.69527711832315    7.44115670266612   17.10386035757528
In       24.64724479147343   11.21389574217396   17.91951824256672
In       22.89956110656206    6.97422702834221   18.08875899390372
In       22.12795083762522    9.28871413923393   16.00784319473640
P        21.78830397154203    6.77693488752343   15.86355222506185
P        24.07997690711914   10.74812704728466   15.60284848053391
P        24.46312466323888    8.84905043229173   18.57021548973548
In       21.48092533197629    6.58989591480326   22.81174774929670
In       25.05191353956118    6.64754272736337   22.13991842936391
In       23.02150175014491    9.98117066050679   22.01037487906870
P        23.02743668840962    7.66131944792514   21.15841650315297
In       24.35640740038712    1.55448633771393    5.69761930228457
In       26.20723331821804    4.17787477929104    7.91054704859437
P        25.34065427439303    1.88232666120371    7.88335986856924
P        26.12398013149769    5.91585645358336    6.16050964152323
In       24.65431222883483    1.67609038454683   11.67395125019247
In       28.59294144945019    3.10117647145763   11.00150771932806
In       26.05021699509083    4.82923916310007   13.15922872551915
P        26.77959642915051    2.55164952780167   12.51006279544607
P        26.54698920923713    6.45234053924598   11.35931547130183
In       24.44714298782614    1.83380730709374   15.78655096101034
In       25.32200981591058    4.75238965558942   18.01807186535717
P        26.31378198523598    2.73022036131105   17.04443962261585
P        25.72501866807858    6.68928128433899   16.52789901414003
In       25.01208903522074    0.36433476669995   20.12369026242661
In       27.19674597196320    3.42540606782116   21.45159641310759
In       27.78304333115328    7.20480662624913    7.41698462199758
In       28.22906467948493    7.54096577472241   12.78845011979832
In       26.75981982421444    7.95199728628298   18.36618888706216
