200
 energy: -12.993692676859 gnorm: 0.000677672442 xtb: 6.4.1 (afa7bdf)
In        4.21791448393322    4.14842833905065   11.78901909555952
In        5.56735098835937    1.57122057917867   13.62551526545312
In        2.83151566972810    3.02385313985894   15.84260008127309
P         5.24336768510178    2.70624667257262   15.75667380675561
P         2.85619570173500    4.46723318482584   13.83252932239639
P         6.85957539286278    5.66554659356941   15.31161698552891
P         6.46035600511763    3.13847256750498   11.93748786435340
In        2.82812809796496    5.96568247888870   18.69261298921361
In        2.41685706011123    4.59563313545713   22.44664267172143
P         1.98360359687437    6.47812776388187   20.95211169246840
P         5.04817768726876    7.12137680934528   23.40746032535876
P         4.82169642457840    4.86505913550608   19.58393156347445
P         4.31794994735121   10.13024772417107    7.42332461463805
In        0.87870163499848    5.79712130485816   13.30735303472537
In        3.50751382515836    8.44585653187217   11.31646461666184
In        4.45927991458566    6.06346697611767   14.91728711851656
In        1.71065477663346    9.65948714442004   14.41631229003774
P         2.94569811912427    7.90915817548748   15.54739606892512
P         2.89325147254942   10.55697786137826   12.43764368890235
P         4.90423673602845   10.79710876868456   15.55522960373388
P         5.05561592366879    7.23363476041725   12.78915640194979
In       -0.33918636816345    7.18280338967610   20.69167264995215
In        3.40984205480714    9.65776408369856   18.50141360116944
In        3.47824286859564    8.26132701246510   21.88123583625048
In        0.44556448083393   10.83563755366298   21.87020077716407
P         2.08532208291786    9.74502201002473   23.28581469386832
P         1.88228311891405   11.05171944814650   19.86662244411783
P         5.59629138268086   10.49608691207955   22.85456800838557
P         5.06025074790359    8.53068279955581   19.96110337446008
In        3.61393355226152    8.81796739091361   26.79938874143651
P         2.77370992914294   13.13424073240226    7.05357046866241
P         3.27676564415010   18.12899712564233    8.69023875193006
In        1.48427145361869   11.75350094525822   10.84451402534103
In        3.67579360240380   15.01954767919231   10.73796512368168
In        4.23528565646257   12.26411311147045   13.69331684937096
In        0.66105715273867   14.76221649300004   13.44237591907538
P         2.28478441906014   13.43414801271313   14.63779321599551
P         1.70779452044071   16.15505821908356   11.68799433353813
P         4.28146998997320   16.05685817031103   14.83186893996511
P         5.33937799206934   13.60955731005926   11.88548157963788
In        0.44810665037385   11.99280431720011   18.11612600806386
In        3.97513976505270   13.75190474770100   18.00275081767276
In        3.99812321379443   11.43377134173299   21.20032142438912
In        1.60244670832531   14.67347176428669   21.08890288259986
P         2.89142992983227   13.20547379644747   22.51012184552899
P         3.13606953059374   15.61893721845380   19.38599589105494
P         5.32094206638687   15.34116463624962   22.73259730531355
P         5.43637352488282   12.29613592323823   19.33802150794420
In        3.93673506484074   13.85915275107141   25.93880164380056
P         6.05841414904047   13.34095059634454   24.90067349837677
In        0.10470091440900   17.69282224368436   10.67855258903273
In        3.96645788327390   20.81057513168023   11.71934695893006
In        2.92458775695993   17.52903134910262   13.40694367956953
P         1.23662492953826   19.01019785331438   14.36603845395171
P         4.54273373743162   20.03228068167358   15.50583447586270
P         4.78808281579394   18.53435667738711   12.06642637001848
In        1.84209504924165   17.09300212800098   17.92092773557191
In        3.56168224104480   20.51456191929989   19.13047857902686
In        4.41252788339813   16.95384448357741   21.09640406772196
P         2.73386928562797   18.15788704853314   22.40664592810253
P         5.29710684344951   18.88894006207074   19.74259798557341
P        10.88314634516796    6.14564917432423    7.14958080926843
In        9.78048911629334    3.88696281950781   10.39253931693823
In        9.11651315462997    0.55844760962342   13.80447415951565
In        7.90212681545184    4.16120009896590   13.67596569692161
P         8.33583481470772    2.32057881974743   15.29912820919720
P         9.16262063554660    5.63753683202093   12.03181570771458
P        10.15511476633628    5.26864307276394   15.60456373741281
P         9.93979736941863    2.22945702604705   12.19779462439188
In        4.75756664749991    2.44371173174575   19.64382888850684
In        8.34432954201119    3.98729446774195   18.60143188405512
In        8.05389943046377    1.93828480806615   21.86795037593545
In        6.00283892867496    5.75807204788028   21.58470481665451
P         6.92371266536358    3.84281671156331   22.84103133058919
P         7.80136566810647    6.04272412945181   19.85170570852265
P        10.72748068235133    4.35909441046676   23.29512636290342
P         9.62618497855926    2.42427644387031   20.01752829379248
In        5.45294475608874    8.04511883494362    7.78635369154991
P         7.71910821604950    7.27022605085089    7.61349865817758
P         7.75857228540041   10.56488736896501    7.31470139194117
In        6.87421902172653    6.36222792467905   11.36916879005511
In        8.80546568942022    9.22260868686072   11.45251179578169
In        9.85015428656522    7.07992403846617   13.94519584841790
In        6.01541029512562    9.01515481960317   14.27306150131265
P         8.32599797546689    8.66092997043296   15.04816332316831
P         6.66653029915399   10.23998073131780   12.19739655479568
P         9.68478024181592   11.51110564511051   15.24284234993036
P        11.04695718943594    8.58489811402445   12.31894984704491
In        6.50550969229901    7.44377567476752   18.27331141713008
In        9.87442565985708    8.04605151898370   18.35797211938866
In        9.43120703773746    5.81090409966360   21.74857026384801
In        7.01631957782558    8.95973540333226   21.47429386938543
P         8.42962578310263    7.66595443006578   23.08450768628563
P         8.58252793214090    9.69402410540080   19.65688316131223
P        10.75224767945415   10.31617485259211   23.01338012357373
P        11.01965770643405    6.54518298204473   19.95818881709013
In        6.37852715480001    4.98529699928739   26.59062482569173
In        9.18487974195643    8.53049675893124   26.39219683386058
P         7.54698472658230    9.64870163966387   24.93087700428523
P         9.99063034137379    6.53208807677718   25.19423857495399
In        7.48049449554895   12.97288272102742    7.07336092323798
In        4.77045904359684   16.76950997515499    7.38881158305533
P         6.40398425999991   15.02416308524883    7.78701096248181
P         9.84887255707817   17.70160762500687    8.74834088668819
In        5.81121397519895   11.69177099162747   10.40838533979911
In        8.77040268326430   14.38200885282810   10.75946897571401
In        7.79667726310441   11.94284123592685   13.67796422281776
In        6.23408602488989   15.29065115438706   13.52471229384470
P         6.79303741544837   13.59405139690555   15.24788105523095
P         7.78707965471515   16.35413562716415   11.84541812210135
P         9.64663245506791   14.81567169842324   14.45567638344836
P         9.56528635378360   12.35995597455034   11.92807350468537
In        7.29316581655453   11.18210516097716   18.18275515320926
In        9.05778308813322   14.72508021076645   18.07353083542463
In        9.69235554488161   11.42273041592453   21.07821395517759
In        6.40895298917209   13.80079258216885   21.10908191969077
P         7.95389975996144   12.42930312306257   22.49713658084969
P         6.94292298960211   15.33304489902590   19.17913951586383
P         8.89460531380011   15.40276553904907   22.53990897899468
P        10.38429871459547   13.16508752558528   19.41938496090481
In        6.85704921518177   11.53679618971210   26.34006909174704
In        9.83940085041060   15.73378244998057   25.89965512353202
P        10.22157013764002   13.65141992241936   24.73392393033757
In        6.61365251493275   18.03557135839777   10.50183561322535
In        9.73374917242664   20.21293730840228   11.82125162633304
In        9.31344621627357   17.12155582220334   13.66905406980278
In        6.13404561170141   18.72414985517548   14.18890374238712
P         7.84818389941505   17.60017285626821   15.59532242461474
P         7.71389935296587   20.29633267796458   13.14283987665750
P        10.46422798872289   20.16898051581798   15.63758702372318
P        11.16213951860945   18.29992582508206   12.43817801878180
In        5.68821728494304   17.13702309839649   18.03134909409104
In        7.51276811389668   20.46282086365722   18.00298111247017
In        7.73683244882875   16.93306898867074   20.95297693965868
In        6.41847119138027   20.32484584399315   21.45054086215742
P         7.18067149936058   18.44815434557017   22.83191716629990
P         7.41719295203750   21.96875859496703   19.91474321782918
P         8.51224423585037   18.52551068817211   19.17056116615845
In        5.72785737526232   17.73055607950603   26.31458777554069
In       14.53580361633763    4.26515597394163   12.19117651256891
In       11.04545706536203    3.65021936283041   13.94607007859664
P        12.59323141900762    2.24720334318929   15.21923485674488
P        12.29012968557181    5.24563232154679   12.45967387300864
P        14.59508507840804    5.36632570572212   15.82841515839965
In       10.72242278263540    0.83709121970150   18.51328578217298
In       14.95756400685777    1.90909529381732   19.31942810643123
In       11.48785348438519    2.64863527880396   21.69624279511658
P        11.98730040828712    0.40561152848623   22.52471312983675
P        13.31976711437412    3.47116219284578   20.21086110182262
P        14.49240572114191    3.48324108367498   23.77540133383975
In       10.18050461989299   10.36775850815897    7.28924122826663
P        12.52614658074040    9.90761649253117    7.49641155422975
In       12.12842321572704    7.03002026557874   10.74201467555753
In       14.95599445316510    9.61672419550714   11.42907271445062
In       12.97636636901361    6.62411460953906   14.48416567492313
In       11.51701630697464   10.26318496241593   14.11558018724051
P        12.09445493892239    8.53507221430749   15.78886121150532
P        13.23534559688448   11.07522328696243   12.45648666806223
P        15.32845728091786   10.09904618156019   15.93784319996397
P        14.53497157070483    8.00771422471296   13.17978017849883
In       12.14640405285990    4.86139950936502   18.56961965986868
In       14.23725263939506    8.06396194574056   18.96851186923417
In       14.08233569633883    5.08334690145556   21.97300265593175
In       11.45322502131198    8.44828583247535   21.54809330558627
P        12.84726863482209    6.97670860548848   22.93817256718636
P        12.49109347640486    9.67131363803092   19.63189449053631
P        15.28321238495385   10.05392989567274   22.00226836426375
P        15.33268762766140    6.33812575466762   20.25481873857713
In       11.37735175763337    5.43365562566006   26.85359781036751
In       14.13923695276259    9.10424400145554   25.86244490970530
P        11.75551275071105   14.10523133582759    8.04159518655549
In       11.49060823223794   11.36712413660876   10.71553340386576
In       15.08808004037262   13.44382603193008   10.77710632644454
In       14.58173314042587   11.86458997722903   14.42010568540597
In       11.34153462005356   13.39645698684075   13.40174441073939
P        12.65852565878142   13.03252945807540   15.47456331415791
P        13.09059378887655   14.35113419059409   11.90706516686926
P        15.81570791113898   14.76175636612366   15.83213219136459
P        16.23446549554749   12.74949570406897   12.80135237304273
In       11.40417897430825   11.30959203951171   18.14542586341899
In       13.47450522945840   14.90074032749715   18.71736195427835
In       13.78872295101521   11.51833851624546   20.73511770377892
In       10.94328770805041   14.54027659580581   21.44084388844769
P        12.48793385373636   12.83966042076008   22.35748411753130
P        11.92983192513468   16.32041654049248   19.98964455284504
P        13.98643248902510   15.84906126582399   23.30737361073206
P        14.56606062750032   12.74270198275240   18.73777412352458
In       11.27236452207881   12.16824873499964   26.31409689888287
In       12.42027687454394   16.60799311850880   11.17344412261295
In       14.32248064042499   15.28252122736682   13.93389006794017
In       12.13162027382869   18.67802035563142   14.70536581968098
P        12.43348739537254   16.29155209164678   15.17347728394626
P        15.62066924388364   17.03805461945949   12.82414053916995
In       10.84528041118522   17.97810151846891   18.52710137004296
In       12.93197318527491   20.76493105047444   19.05492577492621
In       12.85481470622852   17.54962968850598   21.96796072012619
In        9.58846610911460   19.81057183195617   21.04757114719924
P        10.53462175837970   18.13096106693416   22.56163669201340
P        10.60105266337948   21.34230560066497   19.41616397196726
P        13.97887706350950   18.96593053628622   20.28900684267212
