     57
 i =       17, E =     -2215.0567892679
  P        33.0893483084       27.6255032530       31.4387253014
 In        30.7065391378       25.2219254887       31.6932231738
  P        29.2485861490       27.9596568217       33.1621012421
 In        29.9501842618       30.4899604931       26.8335012215
 In        30.0074540496       28.6160076268       29.6473416301
 In        27.0306536562       29.3285649578       31.3180472276
  P        28.6426922312       27.0570146598       31.2379703103
  P        28.3302988087       30.6411902961       29.1723963675
  P        32.1648684247       29.5148784642       30.9006341919
  P        31.3695799934       28.0770542903       27.4821704490
 In        27.0356104970       29.1511537938       34.6538032405
 In        30.0143931439       30.5057176504       33.2622836307
 In        29.1956656328       27.1580507395       36.1146286408
 In        28.5560150005       30.8686149676       37.3872056445
  P        31.1378324147       29.2667248565       36.6941619623
  P        28.1970819585       31.7826404401       34.6925751371
  P        31.4496879334       30.9992516568       38.0377173360
  P        32.1523697722       29.7445621018       34.8042327314
 In        27.0661026924       33.2575229260       29.1105043918
 In        29.7783794697       34.5194052394       27.7756619344
 In        29.8711478523       32.0354718984       30.7929566435
 In        30.9695739223       35.4095148044       30.7897465957
  P        28.5801941212       34.3831362975       31.3781446664
  P        30.8420983578       36.8303443658       28.5637262308
  P        32.3247404295       37.0888979761       32.1589959135
  P        32.2803202284       33.2052144155       30.1864064830
 In        26.4519425495       32.3354198185       32.5744109792
 In        29.3348198652       34.0399189217       33.9138321643
 In        31.6447811105       32.9944582820       36.4640587970
 In        29.1002084936       35.2089543454       37.5169199140
  P        32.0017139953       35.3219081378       37.5478131322
  P        28.7341876376       36.3119991151       34.9745957560
  P        32.8751113464       36.7244614032       36.1148223691
  P        31.8829029897       33.3459850259       33.9406121313
 In        30.0341110176       38.6930097372       30.3369660009
 In        28.1779462895       36.9957988370       32.3416273748
 In        30.9524746222       37.6099754002       34.5396689133
  P        35.7025567369       29.6170645076       28.6653872649
  P        35.4561834058       31.5027262542       32.8688147970
 In        32.2769037726       26.0208105522       29.0213683539
 In        37.3672155762       31.1850597009       30.7302839303
 In        35.7591320473       28.4264377349       31.0266497863
 In        33.1451298119       29.7270672700       28.4126049116
 In        31.8746883592       27.2223882957       33.8150905893
 In        35.1940214770       28.9468213636       34.0479936954
 In        33.2623966357       27.3113900610       36.5415031146
 In        34.0381783179       30.4414220046       36.9235489679
 In        32.2977621305       32.6149768034       27.4885396670
 In        33.3397791432       35.4436380174       28.2482655588
 In        35.2115712345       32.2538599545       28.6151816904
 In        34.9553937830       34.1217341421       31.3371199070
 In        32.9650837751       31.6017601449       32.2511707300
 In        34.8426923849       32.9383618339       35.0421475371
 In        34.8251389386       35.2166539822       37.5426879794
 In        33.5241004061       35.4523162258       33.8639111100
 In        33.3410015966       38.2649281727       29.7900376511
 In        31.8989329201       39.9168193467       32.5845903382
