68
 energy: -4.621204005282 gnorm: 0.000673642939 xtb: 6.4.1 (afa7bdf)
P         6.98445142928524    6.72681924410602    6.58826821677144
In        9.02274417355530    4.31119152309658    1.53525134639859
In        9.38625234077745    0.54366913720138    3.87705850169376
In        8.71351864603701    3.87176169621479    5.28036648468857
P         9.64367881894506    1.71414318578707    5.99737549917702
P         9.23054669723325    5.65271732438309    3.59557567080304
P        11.69259169471973    4.68111947568502    6.26451625884032
P        10.21386188408540    2.32160001893522    2.37443736263082
In        7.02924711751167    6.66440500727924    4.16231629863144
In        9.39641413967674    8.99917354264488    3.03112945414246
In       10.95638217668254    6.72431174479495    5.03749987816206
In        8.44164961314276    8.49394704220830    7.44019730053831
P        10.82525065475060    8.10737500643077    7.07512961709688
P         8.37194783812429    9.59035063265723    5.20294316635953
P        12.47832735844073   11.01259564381570    6.24615735576937
P        11.73327278856319    8.12877132478809    3.08269410299092
In        6.04012642699266   10.28764541047543    5.02234287449208
In        8.43612688258488   12.75479505662619    2.64177772664489
In       10.05647854452512   11.31975711779103    5.90841084031648
P         8.70027431969417   12.91632021667462    7.16234891515665
P        10.51315485921105   15.53060089388278    5.15025550056656
P        10.57289324796215   12.02663250788403    3.56278154975280
In       11.92178115122024    1.57753111926252    0.79063211126882
In       14.60802972364483    4.32607538981134    1.51845173253820
In       15.07227215715529    1.11838324558076    3.58186222774892
In       11.64404715398657    3.34935332755432    4.17202936236738
P        12.91698052517846    1.30462021660401    4.66866565590728
P        12.44507864884007    5.04358490828793    2.52875687480336
P        14.82214897192903    4.08220074075219    5.70225964657447
P        16.35076422934472    3.06558690114046    2.74356513543471
In       11.81370557135705    6.85378225179267    0.97128349542445
In       15.09420141428843    8.91041860356052    0.89465701619918
In       13.87516951830655    5.94112781819675    4.40786398488658
In       13.25965301915844    9.36002255351874    4.60442177734555
P        13.73373765381496    7.57309257021419    6.29565178561087
P        14.47173965437096   10.48235893348959    2.69358238077393
P        15.58449309187286   10.44647966663397    6.28841127741267
P        15.16196814725999    7.33992694615445    2.80618902838215
In       12.19743916711795   11.15351108364485    1.91389993756836
In       14.96852008399637   13.52764853049536    0.94983443673236
In       15.53308389541044   12.02050469451876    4.35508975547498
In       12.09377874321667   13.92003693442507    4.20672316382979
P        14.20840467365104   13.77963894577367    5.46285978506726
P        12.95543892414136   14.42379812108908    1.95181802776488
P        15.95064022422481   16.34317164120407    3.62617548578448
P        16.85293029979257   12.83415187335926    2.38321920883035
In       18.38172404678605    2.70933673671093    1.43665525460213
In       21.18415325227149    4.70101691693909    3.69352960886982
In       17.16867641053503    3.71501933229296    5.02899078185835
P        18.43342681089020    1.74478675623225    5.72402114837744
P        18.87536228309568    5.34199378517498    4.15431357140147
P        20.21742354739704    4.56934459239359    7.79084297601582
In       17.38138609545938    6.26997194577394    2.41544939862966
In       19.94034742625221    8.36945454875145    3.22789298651411
In       19.19854675964202    6.32884605623887    6.43842872310361
In       16.21118954836030    8.55270079076247    4.76862048151388
P        16.79249294548568    6.87150506166149    6.47441908377002
P        17.79624052909310    9.63407516263618    3.18990534562835
P        18.27233070408194    9.91746286697230    7.30218415757238
P        20.40133026384160    8.38145685946843    5.65454793999247
In       18.27783631245443   11.14942976529977    1.30385121403129
In       21.43006803353896   13.23369956627460    3.66048944987884
In       18.63403527145802   11.04219666012492    5.11385342427704
In       17.75148224733178   14.69697950269371    3.79226261391805
P        18.12800820836448   13.35975909249215    5.82685837950623
P        19.90745073461866   14.77529383637126    2.59130448748693
P        21.07557224760077   11.03463118167517    4.64835778575811
In       20.57761302618793    9.39858421245819    7.90284397682073
