328
 energy: -24.874053274118 gnorm: 0.000782150326 xtb: 6.4.1 (afa7bdf)
In        7.34797059643084    8.41907464728451    3.49908048872280
In        7.82939789638944   12.52084098392058    3.63277750512454
P         6.81279119937959   12.74652777093569    1.44754533969931
P         8.92110396230938   10.27268289500751    3.75000796861493
In        7.12095379538783    9.99207038863777    9.08113705760491
In        7.55061360124574   14.20274240902093    9.42942920872641
P         6.75804967038952   14.65862480377581    7.15348832626267
P         8.56758154330361   11.92795836638441    9.58508685826981
P         8.10372854918195    7.78731892828354    8.82039314676001
In        7.63141338955537   15.94126744042871   15.29028648730982
P         6.75200437164087   16.34450733421329   13.03263693927421
P         8.49775946340196   13.64124375207671   15.45232298382322
In        7.69766584638506   17.06045702295999    3.87332510683525
In        7.58679911160577   21.56098533180020    4.34963844878192
P         6.80934513404502   17.26872392677616    1.62971871681509
P         6.70316554858335   21.74656248708711    2.10213136280607
P         8.55021257782797   19.27518978098028    4.67660437971976
P         8.68771343291323   14.79019420949236    4.22770139964120
In        5.74363107363399   16.87585179887332    7.17144461211338
In        7.57208273702923   18.73902494582199    9.84808556276402
In        7.53243156507853   23.24157197191257   10.42685439980138
In        5.74275534043233   21.20864763434301    7.70404409077477
P         6.90271411378279   19.03574380938069    7.47618932428235
P         6.83227455013013   23.39879228206912    8.05013776024489
P         8.46963360854737   20.93684691742533   10.62392277300980
P         8.46262156756701   16.42337121198351   10.10402928348090
In        5.73910077733062   18.55951409159145   13.14897520096482
In        7.74390853811135   20.41285703020973   15.82485306462176
In        7.80534882550037   24.98305876401790   16.35767279908010
In        6.06186511649634   22.90648011480140   13.82553445015622
P         7.01453603904507   20.65162155207221   13.46074034000446
P         6.86085407228510   25.19884572185800   14.10345683433878
P         8.67639844890163   22.65081920259511   16.39636742590195
P         8.68891793844880   18.10643920690425   15.92100457393726
In        7.49187514456563   26.04952948185869    5.04115076896029
P         8.25692748008432   28.26317236866300    5.75288899967385
P         8.43034569846815   23.76145495387414    5.18484592185297
In        5.57809893294138   25.51123341579777    8.29514608820283
In        7.40993121098362   27.71931974623541   10.96922552041492
P         6.57019895857987   27.70576457161599    8.66501910472453
P         8.27636015456794   29.92274681093669   11.65047592713275
P         8.42014805159367   25.45477783490485   11.16151693000837
In        7.79349884953335   29.28925119638123   16.83377321448661
P         6.82099847823638   29.37306267941931   14.61146064834969
P         8.75955782051961   31.43611952893425   17.55112478746145
P         8.95141861910268   27.09285940043429   17.04303644212063
In       10.91270906435897    3.73734976906505    3.20013063352089
In       10.90302002901135    5.07309517633963    8.96423704890025
P        10.36523980303575    5.30978482765367    6.60436323100297
In       11.29709314701014    7.90369982640353    3.23430294850412
In       11.22118498084113   12.49355491332540    3.74774584510370
In        9.73368678016358   10.46737893928049    1.40538047038746
P        10.65009724341539    8.23882507060803    0.90081112548150
P        10.65353370342504   12.77292879953485    1.35691862049422
P        12.12760743127977   10.17010184973492    3.84615845582789
P        12.33001520837761    5.67028247057272    3.62359555230792
In        9.38221251536106    7.55921813837368    6.74716328381710
In       10.95710553998292    9.60195771942563    8.95868099344334
In       10.94821767929245   14.15562835509553    9.45988283086535
In        9.30319326762118   12.10330425419323    7.22136167284393
P        10.25822572524139    9.88572974416548    6.59697041541150
P        10.19820360923442   14.42135934181251    7.11299551799723
P        11.81811554223479   11.82973300507847    9.66416188792119
P        11.90135920569063    7.31240343959055    9.16161582421073
In        8.74505538184398    9.50222266957088   12.69470022195012
In       11.12579228666579   11.27265342383930   14.84778310011981
In       11.06399767637742   15.79972950384502   15.26840081798642
In        9.23343629940212   13.70653320733282   13.11642079645892
P        10.18789721680366   11.47092109302218   12.54765221046967
P        10.15125702338094   16.01870086599833   12.97111788570545
P        12.04284971584334   13.51485888475323   15.38749149268217
P        11.90254970100515    8.93816347677744   14.90312485608085
In        9.63187875225124   14.96601617066554    1.93584880029517
In       11.03821681101604   17.06855568139567    4.27334974730791
In       10.93148703927536   21.64284818491841    4.78053827516530
In        9.53122569342535   19.53941955345704    2.40454843500674
P        10.49041613337996   17.30317616109320    1.87155753281513
P        10.36688758934862   21.88717835304033    2.38407466483467
P        11.89286790580207   19.34158720685610    4.83765322334062
P        12.01862075702821   14.77616690739598    4.34967695237682
In        9.32203011640078   16.64806510625031    7.79350237977989
In       10.92589420953645   18.73432120568232    9.97249976817885
In       10.92180984695481   23.31407044403290   10.48920419600524
In        9.29906283186577   21.21102856554576    8.30500292500703
P        10.16909862674768   18.98224232889012    7.62211268255799
P        10.13438827959678   23.54798294764205    8.14854449543699
P        11.77367787129810   20.97750604702114   10.64755938439877
P        11.77684575759007   16.39928926477172   10.15182385146402
In        9.36807077414962   18.31421381599487   13.55000796131706
In       11.15941120378706   20.38108360471704   15.77205251796811
In       11.28779512775822   24.92554770880142   16.28204963657427
In        9.37889255648687   22.89203842738463   14.04302136216718
P        10.26906069517106   20.63677534965132   13.46704937944462
P        10.36752545701948   25.17497975208360   13.98830341180757
P        12.14659051226914   22.58911594975137   16.36447676676082
P        12.00311086959575   18.03672928529939   15.84013926740676
In        9.40766878088664   24.12118374906988    2.92525391891933
In       10.86396054643303   26.21814120600764    5.35219234694955
In       10.95157368194608   30.84048704120401    5.76719907997006
In        9.29241638901039   28.69410951116130    3.56439504788453
P        10.24065220522254   26.47054338124150    2.97400233835047
P        10.22954571691841   30.96939218976520    3.42700222926399
P        11.74922007685155   28.48530407216991    5.90204093702440
P        11.80267559341529   23.90651411453073    5.36555083025822
In        9.23582243572081   25.76170853954466    8.84551945127453
In       10.87796788213671   27.88867006428398   11.03441070182531
In       10.86382624607108   32.46617208441917   11.51711638212081
In        9.10984799820681   30.33774674092238    9.37951463407234
P        10.02176834404903   28.11985380216854    8.72380733865886
P        10.04747963367229   32.61412356694490    9.20548340553787
P        11.73105721119945   30.13729052400801   11.69370186980303
P        11.76349918632359   25.55969507730429   11.16723266936787
In        9.53868220103182   27.42201673191600   14.65499014643642
In       11.35276528225298   29.51198357473067   16.81398126815608
In       11.50499119736150   34.08716588993643   17.29297322979716
In        9.42496108711170   31.96624537340498   15.25156920294751
P        10.35644265061556   29.76960956941186   14.55573123232372
P        10.39654426693490   34.22413322981132   15.12035195812581
P        12.28588246528298   31.75066483850986   17.36803161175560
P        12.21614582286177   27.17153815369545   16.84228850185052
P        11.80109593672205   33.06265726796688    6.41311065402132
P        11.78249518884754   34.65908531577161   12.16775210173267
In       15.05832612417281    3.28385517316006    3.64220343749107
P        14.43055172939152    3.54818814035699    1.31484695927124
In       14.84194405427721    4.83904079778085    8.72256245509547
P        13.80824981692062    5.26238493910016    6.55956669807021
In       14.49631050038845    6.47596374946599   14.09996022282429
P        13.45932981842763    6.84958272529969   11.92518347122100
In       13.45343121138321    5.80262459013683    1.40716357263121
In       14.78146878282096    7.95650146895904    3.55766662747083
In       14.52174287583658   12.53416863931097    3.95906372134480
In       13.18753782711532   10.38978387806857    1.61170243601809
P        14.20597157461322    8.15980533525560    1.16648862954753
P        13.96178457461826   12.76078984185911    1.56278514826261
P        15.54590841891678   10.27082224635818    4.07193660279862
P        15.67900793164059    5.65554696271304    3.86856218136470
In       12.78555080945963    7.49338622242220    6.85296099487680
In       14.36265059056418    9.61783052041007    9.02500722544550
In       14.30120044955471   14.17780180787176    9.53593645726145
In       12.69157314643952   12.09375882921130    7.35885190076203
P        13.56272933112446    9.85717162668163    6.69422180155832
P        13.52433423312871   14.43510782993017    7.19842402898542
P        15.17616937237741   11.85719261711847    9.74369878895326
P        15.10908920916421    7.25147684785139    9.14284800100061
In       12.62917713845298    9.08457650552015   12.56859570251911
In       14.50445840926916   11.13585138215601   14.71413258736647
In       14.48924910696432   15.73016032910334   15.24020422281736
In       12.63332524577601   13.69121909951441   12.99073352703010
P        13.50374278914561   11.41566223903373   12.45948501529254
P        13.55644740937514   16.00690065379255   12.95527880614056
P        15.36171524128006   13.39578163509291   15.33575631968887
P        15.22464506817595    8.75796763174127   14.67232565491243
In       13.01472549980684   15.00912771374536    2.08346047379224
In       14.37208791699761   17.11750835330378    4.40092696161621
In       14.28266712605884   21.69719439807104    4.89074585128581
In       12.86959775652962   19.60455067812882    2.56796674929986
P        13.81688302285373   17.36824629484607    2.00395475006383
P        13.68210514009639   21.96081956573061    2.50615942103019
P        15.24282879384233   19.39701213359158    4.89983535793557
P        15.35282387364418   14.82634419631786    4.46588078138169
In       12.64086697409640   16.66878450236066    7.84453096241130
In       14.24724853139929   18.76546579807189   10.01078259308991
In       14.28259576810215   23.34718403398045   10.49888397096414
In       12.60924572968633   21.25901258859872    8.33202716417406
P        13.45875383841588   19.01405943364530    7.67523989299843
P        13.44121184130064   23.60138089513799    8.18318927470723
P        15.11197615099579   21.00524075030067   10.66607416706702
P        15.10412989580984   16.43408203200376   10.21089065721588
In       12.67690790241607   18.27791021808417   13.47315742309328
In       14.54714186351613   20.33076237139270   15.74692504238801
In       14.69483699061413   24.92578559613392   16.21795458572986
In       12.75603865432908   22.86657112652160   13.98278022883983
P        13.61321207901938   20.58791028085682   13.45983329591752
P        13.70842967501525   25.16937370952834   13.95175358943574
P        15.50190878975206   22.56761096401575   16.29890798648420
P        15.37447570481661   17.98048593286740   15.85179873205155
In       12.76627141248326   24.20362711147095    3.09613227053371
In       14.25806136183008   26.28351126648962    5.40585478303644
In       14.40594237097814   30.92410847232219    5.97465091901577
In       12.73955419232547   28.77022658675194    3.64519848619676
P        13.64789901093579   26.53379577230561    3.02383384506076
P        13.57589695520221   31.11105812934128    3.65072749454882
P        15.14894515272642   28.54187698428667    5.96046523589939
P        15.17017810065967   23.96275301260188    5.42572233151204
In       12.56960122800953   25.83777719408744    8.84221671409919
In       14.27964804022263   27.91709512114843   10.96739533372856
In       14.31141783463138   32.49757418058384   11.54206272444988
In       12.55932518072697   30.40859984543528    9.37742429360611
P        13.39883058012752   28.17616318276879    8.66753226724742
P        13.31518280345547   32.77482900251663    9.29453830682170
P        15.15694708973601   30.15311345809668   11.61069326727223
P        15.13927481803793   25.58564521026362   11.16392819879155
In       12.83565296306939   27.44414210673277   14.46409010486053
In       14.79566737042387   29.50072128164815   16.61940553100886
In       15.08039950955897   34.07899697025093   17.01131197032329
In       12.88081700295241   32.04794925820989   14.98920012450988
P        13.71501955663405   29.77260099999420   14.40041555084047
P        13.81941304829555   34.35763530403624   14.89469738871983
P        15.82821678566883   31.71505789397028   17.07605723680790
P        15.66188875433333   27.16607303590895   16.73070908848458
In       12.85142555876884   33.39462465585355    4.23748366099239
P        15.42485664106317   33.07215930505786    6.54155010064994
In       12.65189412474831   35.06317451072476    9.92665382276256
P        15.35890728069718   34.68373184938763   11.98942102857356
In       13.25730637038597   36.73449168300588   14.92634755665351
P        16.36697043735091   36.16448943746691   17.13222808352430
In       19.28398188879642    6.31144009005417    8.76984715766801
P        17.89561651317590    5.91042878655595    6.82608758970963
P        17.31457913601270    6.99375543215809   11.96048872172964
In       16.87984304315052    5.87954402619539    1.72185602121771
In       18.25073274749585    8.18119945819020    3.88975878956105
In       17.86781401213226   12.68106634119962    4.20753238908667
In       16.64400317864625   10.54630754728326    1.86679669395329
P        17.52447344338482    8.25295036612195    1.52481162846346
P        17.49349562700946   12.88276811891741    1.77657758120095
P        19.01855237504892   10.49360432030237    4.39156216206027
P        20.15924362033256    6.67876544165618    4.00868382932674
In       16.13827831963684    7.61551827472183    6.91556841627505
In       17.83838599340259    9.66394621539956    9.15397829297953
In       17.71277097760862   14.29426157095244    9.59771666189841
In       16.11446241291831   12.16259848130862    7.47419984715090
P        17.00581708734938    9.93902518360895    6.83435043847062
P        16.91385955921529   14.50876421447337    7.27035054487969
P        18.53546218803960   11.96038509607219    9.75920730062737
P        19.63597209620244    8.28702305333325   10.19344260481775
In       16.03137251129152    9.03545685006774   12.34767285231322
In       18.04710742958942   10.98779316357540   14.51095200961141
In       17.88186517608410   15.69933245163530   15.16462423699790
In       16.04365530444872   13.61520755077879   12.97195698786094
P        16.92317846231063   11.37155825268299   12.34614442349662
P        16.87981506698947   15.96571194272684   12.90831406147580
P        18.59025578680881   13.31811797628313   15.11757554451880
In       16.39986710080033   15.06839501350903    2.22442110901161
In       17.65350231838838   17.15866957815278    4.54009918541024
In       17.65667759845081   21.72482616212717    4.93346088815392
In       16.23952354649352   19.66388259066355    2.63875799958768
P        17.20799908742084   17.42430623287843    2.12431375238413
P        17.11737960054133   22.00532720553378    2.53072178613899
P        18.50202149453906   19.39760018908564    5.17777207750627
P        18.70360094645161   14.93251836603286    4.79072901374485
In       15.97337390286430   16.71615358683988    7.91094267077447
In       17.52419747115862   18.86954755488227   10.06408607529882
In       17.75351659977246   23.28135546819345   10.42866571371176
In       15.92984486141126   21.31320115796094    8.34935933049624
P        16.76304206173436   19.06460801191308    7.71671697513384
P        16.82504505206241   23.62022425272877    8.16209746450432
P        18.69744001057592   20.98585370727695   10.59218596830463
P        18.43092953288647   16.57042310190237   10.25602606105430
In       16.00695865111900   18.22585730164919   13.47666709801307
In       17.92000437360594   20.26300083704450   15.63361412805409
In       18.14787878272703   24.83580454459474   15.99021039183735
In       16.09573601740900   22.81677502966501   13.91452781130594
P        16.92660934866973   20.53786763529560   13.37327295230767
P        17.05594247072005   25.10779946738474   13.77813910543629
P        18.94185739305206   22.48345030346746   16.05956447046180
P        18.81799318354674   17.95283059523020   15.62336451309850
In       16.14764791425798   24.22400345146931    3.15689210683576
In       17.58156522502107   26.28826984746675    5.53687181158835
In       18.33149569395826   30.84164604876925    6.10120059197512
In       16.19443599440839   28.82299423762311    3.72753098954157
P        17.02574932912560   26.55145351761919    3.14404643954109
P        17.24171250358405   31.03380101261694    3.94705377298701
P        18.73174319324900   28.41133560840388    6.13710188172818
P        18.48806380721459   23.97469118823220    5.56561109432634
In       15.94695351153475   25.84530328080407    8.84001403281905
In       17.60492418761990   27.90051728116907   10.92131814333995
In       18.48835012834111   32.24972761226611   11.39721804871434
In       16.01587842897767   30.50128881476491    9.31815209067539
P        16.69773351103321   28.20806375299330    8.63415242729888
P        17.16751582845107   32.69687590883154    9.38071005718954
P        19.05778188833932   29.86830328159854   11.28117451939028
P        18.48721335734330   25.57140747797513   11.04763386821918
In       16.22228168281289   27.38455085422209   14.33746804828736
In       18.21265431165630   29.43816672556762   16.26758338578070
In       18.98409810058205   33.59994017471035   16.24006828852488
In       16.22057587176862   31.97270811859621   14.65165535041195
P        17.06316149826106   29.70702368987453   14.08761826457899
P        17.42797788381126   34.12779155797629   14.41556568614493
P        19.84041778148244   31.30545177132138   16.24498069653324
P        19.07981324409756   27.11532710453547   16.32694479787367
In       16.39074632158796   34.98870793597399    9.80776251822314
In       17.07061627567628   36.51743535488552   14.84384010100673
In       22.35476445906342   14.17234316058884    4.84459583119124
In       20.57202235789372   10.97188531778469    2.54974106846396
P        21.33369084587607   13.28890970321624    2.79819847230682
In       21.49421710210876    9.50005085362259    9.13535324212506
In       21.80654033230020   15.17146958923815    9.80723722025150
In       19.66838182431035   12.38647733636113    7.59899896481827
P        20.45835388078488   10.10644934452913    7.02338146016891
P        20.44971399088223   14.75736220438379    7.79205397037507
In       21.76522845257004   15.63093764271351   14.91239707264472
In       19.41127681678464   13.63791416336267   12.80026076930220
P        21.01602980779350   11.84146941479028   12.45678572560673
P        20.32809437701470   15.95164601113057   12.97558731021192
In       19.84318888502509   15.26437673285623    2.61329953980122
In       22.57877438409314   17.94277264237913    3.80217947173581
In       22.53878819878241   21.84229056577727    2.73824299189570
In       19.65222022062471   19.58931196994000    2.98530471145527
P        20.76663468354353   17.52655034857353    2.18021658059408
P        20.09653394646221   21.99044971237411    2.52842568408736
P        22.55816688904714   20.26743805314401    4.58764910536488
P        21.74036540046235   16.43244969315575    5.54412827328431
In       19.39447038042812   17.01426356109011    8.00689305762000
In       22.37303261989397   19.07602501589207    8.94119374464153
In       21.29391993905886   23.46434176522502   10.32388711590035
In       19.60336257115207   21.16610427241122    8.29852764889621
P        20.55382342169049   19.10439010117201    7.26554526419491
P        20.10543610080634   23.60146078598213    8.14803891082587
P        22.44071190593984   21.31327587502517    9.95650180514914
P        21.60690213360169   17.47598221355691   10.63384790307606
In       19.33484559116665   18.23307961735399   13.22399474486599
In       22.10407086475828   20.09878097919696   14.75148573728918
In       22.05369708552374   24.57571905443602   15.48529624905497
In       19.45741647482873   22.57403643166622   13.64628173828691
P        20.51058434988041   20.42214689333252   12.93948324948078
P        20.49683079424650   24.83879754065807   13.63364711451465
In       19.50588464286021   24.27144328863123    3.32242587492919
In       22.49061777961513   24.71507243287583    5.57375392131655
In       20.26478884720245   28.24668149390484    4.20777636319912
P        21.17508199732472   25.98023911539109    3.98309598194327
In       19.38373669240504   25.89837282430363    8.75699952802884
In       22.95854478969243   26.73736145286484    9.17703973465297
In       20.47238741167777   29.63184060314820    9.29306726248868
P        21.00490722772208   27.62030698331167    7.97134488128469
P        21.89468701084659   25.73934341381424   11.11786926243108
In       19.64515358561865   27.16435668727310   13.92393941346975
In       21.32146563835681   30.48281148096056   14.48374883750699
P        21.55073397715363   28.49520416153167   13.11315699813386
