72
 energy: -4.644278794590 gnorm: 0.000119755058 xtb: 6.4.1 (afa7bdf)
In        3.24473641219932    7.40680329108404   10.30541416985290
P         1.76284616572905    7.43558377793428    8.36500154615378
P         2.68060935920917    5.36423594434654   11.50077962206742
In        2.58660204008721    6.76891310526645   15.35713690280118
In       -1.00098360484960    6.92647549728270   12.26861184968754
P         0.95239448035613    7.40812116576645   13.63970853346600
In        3.44345809614247   11.49028212233660    5.20325636811056
In        4.80610872528617   15.25058955161050    5.91702053329917
In        1.36370419100444   14.28153123432249    4.37215993837417
P         1.03169926338466   11.97613825428943    5.08216574645786
P         3.63755959728350   14.94275812362084    3.76623890676350
P         3.71231946247882   13.26758302631502    6.90608197978827
P         4.18276943856022    9.51597450163557    6.42469467569999
In        0.47477236916633    9.44197398330986    8.85858467863632
In        3.17093614109479   11.01895898862680   10.25443360248707
In        3.02366743642187   14.69978825623016   10.17747305902980
In        0.29067119143705   12.90548057307249    9.01923470849734
P         1.96271316048005   11.28772937049582    8.08903043781861
P         1.57287154672448   14.86337321625900    8.16017219811610
P         2.17132892367556   12.85163953394437   11.61873908961681
P         2.26943669023984    9.20604920669666   11.69494666244836
In        0.04898756559688    9.28383631828796   14.98931005593482
In        3.14922970120556   10.92988946130814   14.71429677451306
In        3.01454213106306   14.58846428783151   14.59377417986121
In       -0.13539631916907   12.86824081702804   14.74921274423293
P         0.98345375479552   11.03743840768751   13.48265989025174
P         0.85092028780691   14.68561989174283   13.35419547365996
P         2.70393170762180   12.79418144364674   16.29177041714650
P         3.24519219660164    8.95390914304133   16.17728328625234
In        1.66750968064049    9.18631098591183   20.02951745904783
In        4.64177116296255   11.18874723272373   18.82793197104462
In        4.35870331934989   15.07319727508637   18.96031746069980
In        1.42146464675508   12.90359270666412   19.76607798776075
P         2.20925029022950   10.95600090285506   18.42586594159889
P         1.99346025311506   14.76487615194796   18.22060889185225
P         5.03046246319921   13.10510085566411   20.25635306937454
In        4.30982601669188   17.00702711583338    2.64516071232368
In        4.32840427132956   18.86384215032803    6.01189598060847
In        4.00377480046801   22.47807950121796    6.01251603863699
In        0.99274709072988   18.55149015091351    4.27875199723356
P         3.32185110079208   18.94348746096266    3.75911979936013
P         2.83805271123741   20.59682680259943    7.02043049008861
P         3.21191150033063   16.85588290315142    6.93696271007501
In       -0.03279252338489   16.55592712363094    9.02367092054313
In        2.83437053718726   18.40379991845456   10.11793845045835
In        2.72279678898840   22.12567809768442   10.08183595202630
In       -0.25824526597156   20.24553295170257    9.08099698340748
P         1.26985748590696   18.51279148621270    8.18228734539961
P         0.90103406077385   22.33542744366554    8.40098678452800
P         1.95271140992624   20.25964780347172   11.52702308349286
P         2.02554689865315   16.53157402018644   11.54626653029054
In       -0.23223161841698   16.52983126065719   14.62773082523179
In        3.05224883135604   18.25269715770890   14.36279451038035
In        3.17824900935748   22.34709872462428   14.28647728437080
In       -0.15489657707274   20.30819785936902   14.60431259562297
P         0.78617813326276   18.39521967487593   13.32283779323231
P         0.87650727082260   22.18451100621233   13.33176675225678
P         3.25042680748958   20.32902627773874   15.66730106927686
P         2.65152941503595   16.53472492328448   16.10521854405750
In        1.32195739623170   16.76117191279482   19.55229991133294
In        4.49653552557910   18.67767302205640   18.55989033913655
In        1.50677161985042   20.47754158135349   19.44556249061878
P         2.07390678590210   18.55583549141436   18.00192679595275
P         1.76631601566781   22.70404942103072   18.58316554708708
P         5.27714349400032   20.95101721134375   18.88467384146740
P         4.58957061282976   17.05307772926608   20.38986032314365
In       -0.67762455178058   23.92309694715328    9.36505228453438
In        3.09756507659352   25.75227304141084   10.09511333170465
P         2.14357747983770   24.05853134804748   11.53636688893879
In        0.05373989731068   24.09790721416173   14.67810641159613
P         1.00569764122769   26.15496703885239   13.86678193347467
P         3.82299092340006   24.30594762056326   15.55373593580246
