212
 energy: -13.941295232239 gnorm: 0.000518315288 xtb: 6.4.1 (afa7bdf)
In        4.84900695560815    2.22887318776949   15.32368025715841
P         3.40423323853091    3.24860899888293   16.95149040226089
P         6.54576716287284    5.52179349222725   15.79837515054529
P         6.72950908247575    2.61453784539178   13.78940947555134
In        6.34435659946280    2.69763724443106   18.79354844204568
In        6.09221242151741   -0.23659198948595   21.66292099443551
In        4.39395347923371    3.16552697566677   21.94629449521191
P         5.89227907249425    1.67359268595839   23.17756924409391
P         5.78762781707135    4.50310522992824   20.39306062247153
P         8.52379546251933    3.84825049334671   23.41516928031552
P         7.44092973507681    0.73723746425107   19.83351435388490
In        5.51011561035799    1.79697266510276   26.48963965453945
P         5.56904017736976    3.91793643205940   25.25886216253799
P         5.64750035546334    4.11816847485326   28.89674506710272
P         7.93351100775430    1.41679770547683   26.79867407136791
In        5.32139661572061    5.71941351667257   13.69723454594289
P         2.89851378998335    5.64801791142087   13.90133968910303
P         4.61897534636742    8.21386245474665   16.05260152823806
P         6.00476807409274    7.74901712859696   12.45907154234387
In        4.46720029411149    6.26570409472355   19.33476709102753
In        7.08582950471983    9.17387658200930   19.11698388965580
In        7.25174808479375    5.56685477646247   22.13914001934941
In        5.17572585364577    8.65272535998323   22.43881873376111
P         5.47246670839725    6.53510304725524   23.58859820683078
P         5.90474422591812   10.35512845964453   20.88324234936824
P         8.30136912963876   10.64722185273218   23.43698160841945
P         7.98295741298830    7.26963834125830   20.43469188136244
In        5.40916700468947    9.98856782149153   26.44759777532099
In        5.22404153228637    5.61444600079905   27.00733154430724
P         6.31425488835690    7.84611315087486   27.18881437567729
P         9.68098826265390    5.90536812869777    8.31902217293628
In        6.00265219486149    2.71869463129535   11.46775955130764
In        9.59767629434931    3.49591676868754   11.75915051683336
In        8.74573674857923    0.43593878606642   15.13351087255275
In        8.24879749877840    3.75994248568940   15.40479187334821
P         9.12962172973420    2.00756868675379   16.98424603651907
P         9.31156676764095    5.14038548882329   13.58052041551167
P        11.28683832285077    4.72123841949916   16.79031762967714
P         9.95851122982608    1.61308797589060   13.32855576400926
In        9.01846609269862   -0.97659855198198   19.11574956934431
In       11.98408257868530    2.49885492172651   19.29684838630953
In       11.44524149234530   -0.39895834686299   22.39586497219380
In        8.53222096902206    2.43385072511512   21.35844697170059
P         9.26586613176417    0.57222051089301   22.81847503062807
P         9.74351076990555    3.57931276935404   19.46230977168827
P        11.70256348809563    3.24615532714977   22.63225601308808
P        12.84068780401829    0.53059066813637   20.56480175131415
In        8.06255034969881   -0.98239640047366   26.45112738302403
In       10.75705974922022    3.26392044613079   26.06652591653427
In       10.16322236519704    1.10810823977126   29.88564292471191
In        7.90040256172280    3.58417890133836   28.01414236769028
P         9.14506274106949    3.30888318791286   30.13474981698964
P         9.12393987212553    5.09818171547256   26.41386868989692
P        11.67334845729528    5.59433635642386   30.09182615554971
P        11.44271805536743    1.63567370156833   27.82066231528766
In        8.33438297420812    6.99638389632403   12.24344352406864
In       10.01099307135581    9.98688092435198   12.69609380553971
In       10.42122742914482    6.54206704962255   15.32494456125917
In        6.47601591546030    8.91357132957735   14.60897857724044
P         8.52978965178068    8.08493481606879   15.69200823618092
P         7.85897755931755   10.69476406909082   13.57947472357293
P        10.72617454153994   11.13103384607680   16.33294038083443
P        11.34361432250085    8.07219208125962   13.55320769685042
In        8.38617561896237    5.52604127716100   18.72689482876910
In       10.34429282187222    8.33226791835210   18.57265210556299
In       10.60188279726656    5.05802260120775   21.33699447875405
In        9.14946551063096    8.88122122168326   21.95858535698377
P        10.15497675622618    6.85048103186591   23.00377682074484
P        10.12266082865105   10.21425879732285   20.10550143844077
P        12.32588388192699    9.75761666212289   23.10712902476691
P        11.64163107719304    6.44415212475116   19.51450087577876
In        8.19923941432404    7.27647169484094   25.69827671997524
In        9.54802299897439   10.19174056526733   26.81835677848597
In        9.85907297679852    6.22185226382300   28.54536106450656
In        6.89504847164922    8.33278209786488   29.55588350110991
P         7.92252848655680    6.16782763928494   30.07115609850474
P         8.40214666075259   10.16048578805372   28.96439771440087
P        10.49191425881945    8.27704234691603   31.47312459432543
P        10.88329502046887    8.17213657331866   27.34999147768070
P        12.50626656516179    2.76772907539930    9.32001937763191
P        16.50611475742182    2.81468521999445    8.42828560302143
In       11.82217869960014    0.29846941780263   12.43196521731118
In       14.79087357241447    3.76477253593979   12.60975290366415
In       14.42963598662565    0.48752820047501   15.34712898487182
In       11.30088549408463    3.10971144157294   14.87791458158935
P        12.20746896278774    1.14604717112163   16.06737486560267
P        12.46238955833856    4.49089458276513   13.14330611400627
P        14.67214934067964    4.10125578486015   15.98808668742517
P        15.79000896975389    1.75749198956685   13.70242186011748
In       13.02468514514168   -1.30426809198818   18.93431552531990
In       15.31524657041636    1.74292320146800   18.87419576362247
In       15.47873804122868   -1.35553832771090   22.00270897108201
In       13.90298888128702    2.23972155474810   22.10212919480178
P        14.99789333939776    0.50156158943369   23.48968711747255
P        14.93159088675224    3.69351338139151   20.34201432052398
P        16.81260016377131    3.43419108360413   23.41610189557723
P        16.47499710473189   -0.05348986324091   20.14477624441203
In       11.98901539523610   -0.35238655900088   26.48448106640954
In       14.16757472112806    2.99459179124072   25.88437709579553
In       13.99045284941788    0.44297050247000   29.66294523252012
In       12.57723742327905    3.54292600568831   29.03645339983116
P        13.57042061446972    2.42960617320658   31.01385555392582
P        13.35095767601372    4.96998900534430   27.12849709329271
P        15.34671781309982    5.40619439188472   30.29761693132514
P        15.00905510906526    1.42913792687920   27.61912024533881
In       16.02751561619566    3.21121312744604   34.05373515612175
P        14.57284948958609    6.23977892021176    9.15846409020999
In       11.67437887732447    6.38946233859997   11.75376270898905
In       13.50448734812092    9.38917851203640   11.68423406856820
In       13.54278746783088    5.99594341322493   14.86176772934340
In       12.33530590279128    9.59564630266016   15.29378294806654
P        13.30276784420009    7.72711140145620   16.63694450225167
P        13.29039437363829   11.02056449236667   13.49530309300732
P        15.40892875025895   10.93064051945523   16.45939308048704
P        14.40952239785859    7.56632315268989   13.11317024029943
In       13.94172209095594    5.61700267219570   19.12955898600419
In       15.68501247458637    8.79429542002934   19.34692252123257
In       15.79112339352128    5.27371497870567   22.09102292928375
In       12.45985294472302    8.04419217263719   21.32164138396975
P        13.52890990797203    6.16950643246726   22.54288037977499
P        13.35560615551524    9.48100380355868   19.51318398754646
P        15.55998357222529    9.19669542623137   22.95321443577457
P        16.81348554907481    6.89645146495394   20.47060662361129
In       12.01754878772329    6.59479084171681   25.80900094335415
In       13.19022527006041   10.18079591965960   26.52172539596775
In       14.43218920283835    6.80067048730099   28.46466981535490
In       11.59109917000884    9.25220180871690   29.51177803462040
P        14.02658588267496    8.88621849863931   29.71789381253549
P        12.12705865205699   11.39284138043268   28.36434619916562
P        16.02163698266270   11.85095715781113   28.09490857327092
P        14.72158875705984    8.22241386170858   26.40128996846423
In       10.83465465155453    4.26000620585341   33.74552518323387
In       14.08881423240320    7.56881349837711   33.46344606357911
In       16.01126155696975    0.18948244521784   11.82180325479305
In       18.28263437148108    3.25568852888148   11.99977075269538
In       18.36232958768596   -0.07193586224773   15.25021857935307
In       16.93199937039028    3.26005480882625   15.38849003443471
P        18.05306253021870    1.64662120737361   16.95114562102290
P        17.79911325115131    4.93787068071658   13.73851845457737
P        19.89812616395253    4.79007056476154   16.82075773973690
P        19.10369075040067    1.54365827910335   13.56151404542145
In       18.63248811401559   -1.00604189427906   19.49304920963132
In       20.73226429775223    2.51958368417246   19.61645233560754
In       20.71241338488357   -0.29912104459723   22.83974371347075
In       17.33318689967259    1.84995661801403   21.58534335094726
P        18.36690894357205    0.22560651707527   23.14887646679975
P        18.37911680802849    3.28283405326662   19.80876266035532
P        20.13420859705176    3.22930938979172   23.09369193575322
P        21.94298043860996    0.92351839890951   21.08051868643216
In       16.54779997364172   -0.32373109086601   26.87974733331339
In       18.60487349528340    2.97270716620565   26.50054713475554
In       19.16653815393567    0.93454218536964   29.83718569836629
In       15.83332725772520    3.40564579623093   28.93421208172048
P        16.95216137629211    1.75163081054719   30.39386107183079
P        16.81360185422649    4.60591357121485   26.96217419626980
P        18.71122238814729    4.76709302415714   30.08720494588838
P        20.33594104348526    2.22224497436087   28.08170605947379
In       16.70132845305176    6.79438464140385   12.51114068218250
In       18.73678265664146    9.80226025714579   12.21305132699414
In       18.93320066570159    6.52408633092557   15.32217561202061
In       15.54882575986278    9.10158790517258   14.78750162737802
P        16.63185972311411    7.20751222999231   15.95025545250045
P        16.46300721845420   10.36092190559595   12.85921562407944
P        18.66250037777152   10.32712503385181   15.86487528010364
P        19.82995501733545    7.99055378388592   13.49110479520404
In       17.18434586752952    5.16866679748627   18.72995541890332
In       18.99660791791656    8.43585401412838   18.76490841493998
In       19.04236515836197    4.89803004698126   21.65384464856881
In       17.76167235054697    8.38967382503366   22.25929149728863
P        18.79473958316699    6.51644540705051   23.53145711983136
P        18.64336995756423   10.01664709148979   20.59449828295825
P        20.78046833905533    9.74412784203179   23.40521947825789
P        19.95654087173153    6.47472876458622   19.93556561736976
In       15.76215719267939    6.21196482382907   25.40934321030799
In       20.10853896460666    9.49558295911519   27.11871987912279
In       17.91160134223462    6.35771873607169   28.38756176655028
In       16.58802089396706    9.57064634257963   27.40787280517476
P        17.15909790898642    8.41805530166711   29.52291385087670
P        18.23259397856415    9.54024433900028   25.55938773550248
P        20.32543350226574    9.28491034150760   30.69107268430949
P        20.04435653305721    7.01693770974961   27.25590513525792
In       18.54404441797224    6.86914347620959   33.43809536833968
In       20.32499452201744    3.18878318991940   14.98687933798633
P        21.99007549020565    1.76776845728434   16.09811035612605
P        21.49722761044885    4.65718024711295   13.36107838762923
In       23.85943175791494   -0.21164315875200   20.09353010269267
In       25.15749091449207    3.27701551967324   18.95865213372438
In       26.31361698910298    2.82306309376688   22.70527611386295
In       22.51122734462060    2.85846963718185   22.57731619004536
P        24.39208128166999    3.25890324420482   24.12837445317710
P        23.49701266871287    4.04343532707654   20.61143012463715
P        26.04220989134561    6.49924703863539   23.88036327686100
P        26.86858126357840    3.88078981864764   20.58383592468491
In       22.22729442570475    1.34778568014866   26.81416831687588
In       25.13739902743985    4.18296142214986   28.04437637752957
In       21.00303242689878    3.99650886697775   29.70675177951390
P        22.79131543920947    4.79068160193050   28.19057418169934
In       20.49539995881003    6.28247167344789   11.83946375853589
In       22.80973917117790    5.89999871713652   15.00740876421846
In       20.84323650094662    9.49359170339175   15.21376645638630
P        22.01425025469099    7.70738884944606   16.40656657724775
In       22.26391358381810    5.77409153887306   19.33862254700795
In       24.33281611701256    8.80226294480265   19.46141005882131
In       24.55379926567535    5.83170024941152   22.04376638318855
In       20.99372149464957    8.02344539133376   21.65700833190756
P        22.23693764408392    6.22747875209899   22.79405412768141
P        22.02115132805253    9.39468500846700   19.88506646944053
P        25.50317596133304    6.73355176503171   19.94561420371858
In       21.53237713856657    5.38473565922024   26.18193455821617
In       23.60376312659588    8.77244954621427   25.95425672922194
In       21.14237350170805    7.33631879348079   29.48741417635240
P        23.09532203430765    8.08979674254144   28.19418071567824
