54
 energy: -3.849428242008 gnorm: 0.000530951850 xtb: 6.4.1 (afa7bdf)
In        4.85585757131728    5.95335512561718    4.74537971862844
In        5.22809775490292   10.13348594614100    4.30563886485564
In        5.15128816982441   14.63198673794995    4.27690896659782
In        3.30590723852264   12.42150929095780    1.50581737561418
P         4.11720439094454   10.22039997606333    2.12865087778755
P         4.19753514204395   14.65613418590836    1.99522205687452
P         6.22772760418312   12.40082751704915    4.52511400169828
P         6.30016621598530    7.90153060036235    4.54751456894274
In        3.23728849055906   16.89724807220150    1.69334525036561
In        5.16062434746413   19.16341824638350    4.28515168772736
In        5.28585715342273   23.66643308282296    4.35690506757336
In        3.32320485034306   21.35625735276210    1.48935235983764
P         4.21921973881285   19.12876081681123    1.99866465990392
P         4.11836898688034   23.53225089779500    2.20906123178331
P         6.25272020690861   21.38316022954664    4.56682296270141
P         6.16515978363276   16.89495205477486    4.50081668518037
P         6.26092728796782   25.91289463911042    4.59252330536100
In        8.85532666114942    5.43453304942941    4.08232146133319
P         7.78731543223472    5.56287314202746    1.90764707904611
In        6.83829490692705    7.82200967994659    2.12569681271720
In        8.64357206836305   10.09967234869207    4.04645696017492
In        8.58934075783472   14.66174427925683    4.07713155725634
In        6.74506815190341   12.39125177114234    2.10131415354353
P         7.70451224433784   10.12063229054919    1.75387891183854
P         7.73180192357395   14.64945196297880    1.75245932509451
P         9.58286916901757   12.39296717328133    4.24547523776212
P         9.54295950408521    7.79017616112482    4.12076107095673
In        6.71867813849109   16.89675229686449    2.08517918774193
In        8.59571585489605   19.13467806505092    4.07699746742002
In        8.69582102088726   23.76157799549166    4.08349150437760
In        6.75811825494163   21.41774419071757    2.14023443741469
P         7.71784230726940   19.15133969596875    1.75988694089127
P         7.62054003160752   23.73014013197350    1.85206269937449
P         9.53951204996117   21.42680965173793    4.21805707127335
P         9.65541943219489   16.89701843041395    4.31149387866348
In        6.80979564371907   26.02678472034049    2.21962023314704
P         9.74592862384599   25.97591709779740    3.87798768963566
P        11.67945606082576    6.02324616431446    1.45043668272517
In       10.17019402835719    7.91157394725476    1.72386968365845
In       12.44701367914612   10.23210406740038    3.75278805843851
In       12.08293243850649   14.62055705516991    3.92573458213523
In       10.16830596411051   12.40196172359515    1.83798341499603
P        11.21806458635621   10.15968827151297    1.63952210636542
P        11.21356953317985   14.64215392513509    1.61295299509733
P        12.72526420584477   12.40986983294940    4.78546233912357
In       10.22037579355460   16.90213577951271    1.89606743312719
In       12.08020613371424   19.16259019954301    3.91172416062550
In       12.47968859007036   23.40243365205412    3.77017098892334
In       10.13178805550510   21.41534603656067    1.81257141074135
P        11.18184212692483   19.17567781323620    1.61105957828498
P        11.32425270796810   23.58157215066316    1.62175863673417
P        12.63928008585925   21.30433677976225    4.97662635057186
P        12.86038693705300   16.89427095929148    4.43546682326176
In       10.37899446208734   25.84204273502424    1.53730143408967
