16
 energy: -0.934207576414 gnorm: 0.000334214233 xtb: 6.4.1 (afa7bdf)
In        0.54439243374875    0.64054714512854    6.78731964702646
In        6.59110996413515    3.34776983669366    6.83009070502037
In        3.96039635400058    0.86694314010778    8.29829038817761
In        2.53953798880814    3.98352365860310    6.81434194787662
P         1.83934279692875    2.10359828102401    8.23233565435289
P         4.72554563669795    4.76103206337361    7.52429787534266
P         8.28701765054448    3.32459842810372    8.55830515110445
P         5.52516907866049    1.18225069798953    6.48186042972214
In        1.78755293052783   -0.18932657838232   11.91861913416736
In        5.45264529424966    3.76708214513448   11.45974056696238
In        5.51242599870278    0.47659758895719   12.51811567445733
In        2.08676080462112    3.59144277265817   12.32097791045851
P         3.29854792846721    1.50643661611672   12.80453274672544
P         3.31555549371757    4.08034841914616   10.27250987145566
P         5.23292252019485    3.72254084306879   13.87762670296420
P         6.69405408924615    1.74396833345121   10.81399559420157
