104
 energy: -7.450093243417 gnorm: 0.000536462366 xtb: 6.4.1 (afa7bdf)
P         5.94283666099271   10.14160953964904    6.27596223568601
P         5.59662553128923    7.46102380778955    2.10711688058039
In        5.28780565404660   15.94819493924692    3.14909286510841
In        5.42166893352162   12.38174767697017    5.45434051454689
P         7.55956737186513   16.37781302141942    7.07206427044764
P         6.40946303812090   13.83045199047501    3.68737872061452
In        6.95824558165334   18.49845076834793    6.08892916687402
P         8.11897060347132   19.92176901462826    4.47276620030168
P         8.65974969360361    4.22933504038476    2.76687265689782
P        10.24682282901871    6.17616936513715    6.67459304581946
In        7.08865221151578    5.63106587513071    1.55870123204110
In        8.90389330884427    9.02168665752051    1.60206216342140
In        8.89589367318427    5.85271404943593    4.62142997224908
In        5.82786244803922    8.76238196429612    4.20902478258959
P         6.67810652241747    6.70221863442764    5.26529412094659
P         7.12542512329084   10.30729205785772    2.72224611144361
P         9.05167430029678    9.17632199021308    5.58865374722585
P        10.03932184924961    7.25853473097827    2.89045655412030
In        6.14296342435896   12.33775961420428    1.72593623409842
In        8.92478791467129   14.78839295735707    1.61390940845276
In        8.39904766007478   11.34355940781531    4.61421953445714
In        8.10872286936848   14.76410250077666    5.28648528653119
P         8.70140703981661   12.76144385817948    6.62192360593248
P         9.11401210432956   16.30501131314188    3.56512157895661
P        11.19888383142514   15.36731444854669    6.54191186124854
P         9.51616222406797   12.74149181104020    2.86949281374672
In        8.40560103069263   18.45400732081103    2.52863823049801
In       10.86307015080536   21.03246620011961    2.56080033446601
In       10.49398534832311   17.42249827008530    5.33686619420797
In        9.80550703562347   20.94098326160176    5.96730850150443
P        10.41944972862204   18.96302721974302    7.26839629461994
P        10.75962003467011   22.63010943075747    4.42474137985340
P        12.94941202698036   21.46760982767488    7.21393608832113
P        11.55029375867730   18.86156571409281    3.56291780493807
In       12.37864170731907   23.54068379085153    6.04663763919982
P        13.59830750736048   25.08459635034144    4.58072461777866
In       15.71328292907801    5.33321404819381    3.07054788707143
In       12.35621298488955    5.51348768139244    5.63413339114989
P        13.63506096893374    6.46905049119027    3.72242869378401
P        16.26397755967425    7.54552958844079    7.03651998121257
In       12.01601792965554    6.19832542374204    1.86479182269766
In       14.61870166174061    8.94072504002704    1.59994814558462
In       14.64718766205870    8.16585896006787    5.27827567881869
In       11.25096309887801    8.50681756625311    4.70430540799510
P        12.70813715232274    8.82105499124521    6.68032554776148
P        12.61313899245477    9.57150564652710    2.89863756855780
P        15.29802921311703   11.23737035584192    6.52454958250488
P        16.16911254748432    9.14029860789457    3.52230865753874
In       11.58450704913472   11.65737045706326    2.00906348781589
In       14.10973018072923   14.17167282216664    1.85358786986082
In       13.80161438943894   11.05309379310370    4.55799699495693
In       10.98782638394097   13.89393495928194    4.56056474373842
P        11.69268854916218   11.77742668270723    5.60240347293684
P        12.04016607334109   15.23191699822484    2.73732321453602
P        14.25269276095507   14.29540389440828    5.47819893988949
P        15.13894619632512   12.07907141829104    2.71962821578896
In       11.49210064042698   17.35716417451295    1.57725842990958
In       14.00531366009630   19.90395685090661    1.59585787366122
In       13.47663800401541   16.40194775582121    4.45834409988329
In       13.03972030938572   19.92200623361434    5.28854395669124
P        13.75187339000150   17.84736693020046    6.45057763635709
P        14.10621088015142   21.41617544304861    3.57137307758800
P        16.31235121246952   20.34520586442071    6.36037771614247
P        14.58429363623009   17.74245954128611    2.67013458332527
In       13.38274995200525   23.60828249022239    2.64648735824181
In       15.66092988077457   22.47090210012551    5.25164535275552
P        15.87385436334314   23.92532457425575    7.23014692117844
P        16.62930461025271   23.85840339111817    3.43434750848407
In       18.34960629197660    6.91596151514176    5.99820217823695
P        19.78112285514616    8.07775144978859    4.39057181295506
In       18.29942658637720    8.40710195552240    2.46413528760879
In       20.92503507251419   10.82173569083720    2.50500240345868
In       20.82974819458847    9.73277136766471    5.89976016203372
In       17.32400325112786   10.49193442923105    5.29296373537101
P        18.86965400379230   10.36717694341769    7.21744557476158
P        18.76789358308226   11.53741753091850    3.51663318544762
P        21.40394635962081   12.86023235505517    7.17364782714942
P        22.52823916081139   10.67653420890816    4.36122578072093
In       17.24897671467408   11.51175514378785    1.54193217634975
In       19.84297424538201   13.98681806911708    1.56724200748058
In       19.85701951135161   12.99410861009449    5.25226752888842
In       16.34049996630858   13.49441705812748    4.43804227998672
P        17.79931595636222   13.73457178868044    6.42597177890317
P        17.69206242603837   14.58963458784017    2.65015877327598
P        20.33058353402435   16.25657181504593    6.34441549690180
P        21.36170643120040   14.05284848093146    3.53948316311874
In       16.62177297267287   16.64852909639326    1.75736377885865
In       19.14742771538882   19.13269619286146    1.67702718750884
In       18.88766469899443   16.02647866011510    4.34918039645613
In       16.04960958897095   18.90918240201616    4.36447014057356
P        16.77502615801318   16.77934477558785    5.37167303842857
P        17.16415622391249   20.29573933501242    2.61530114416976
P        19.32130109952741   19.29015952040736    5.34016639316433
P        20.28615600713839   17.12850020573089    2.60133519998259
In       16.46801638134189   22.39055373096685    1.48960650329091
In       18.67500127120179   21.39552047721176    4.27821438535830
In       23.46520051707571   12.26567832515553    5.99771139141120
P        25.02482377045544   13.47647575642464    4.54118363388615
In       23.54112406928905   13.29986515740294    2.60844332603192
In       22.44442570435940   15.57472414374249    5.23196008158822
P        23.90006985922215   15.74313651129669    7.21337741527134
P        23.84524390124161   16.53492174470726    3.42065031791252
In       22.37374664291681   16.41087558174114    1.47527652015487
In       21.41393372140379   18.61285618690988    4.27245152461616
