222
 energy: -16.566808050559 gnorm: 0.000098276442 xtb: 6.4.1 (afa7bdf)
In       13.37106421797528   12.09500885789387    0.33784499533730
P        14.69346314612658   13.92612204855636   -0.60318251152192
P        12.81442875251460   12.78511512738708    2.64375922311429
P        14.61794219516649   10.00855477933601    0.76080951476782
In       11.88746016643091   12.19221564803746    7.88351195172615
P        11.22242595682561   13.31988202499189    5.80723471176478
P        13.81175907477849   13.31365632166918    8.99523999702047
P        13.35376254041851   10.46857786716403    6.93590150938979
In       12.70950824521442   13.38274185439989   13.07827621274476
P        11.14767829576540   15.02482289445120   12.14637704271543
P        14.92266003166371   14.03245327479421   13.99162141781110
P        14.08269376705613   11.86397026247893   11.67813140148690
In       14.98696267123091   16.34207715093880   -0.73760946044918
In       15.35261715068106   18.18091553608164    2.75055379392390
In       13.51189031776710   15.15947916273197    2.27081451398477
In       11.87843454333184   18.36903779394582    2.33169657143840
P        13.09311856324424   17.01779872818012    0.67062919504343
P        13.47737116729427   19.27277687710343    3.99136669607474
P        17.54317688569703   18.97932122071742    1.87331876381963
P        15.54156938276736   15.83022611888246    3.55715107829947
In       11.34979962589380   15.58926314176328    4.91395346483066
In       15.79808894991327   17.75082001888736    7.48806650464997
In       13.97111911735315   14.64755511100623    6.86529897390958
In       12.16053314596051   17.81861128643247    7.28210723321523
P        13.52097831978569   16.72225793084082    5.50067403517899
P        13.92005388606596   18.94740550572687    8.63118655485052
P        17.69676184380939   18.86789900938980    6.32432592911360
P        16.10834547447174   15.31671351442264    7.97369254788197
In       12.11203490041144   15.86490010984179   10.08213276669243
In       17.56617558706063   17.44973777574916   10.99252547481387
In       15.53248832890396   14.85032501502480   11.73586275957749
In       13.57906964659032   17.57257215496775   12.46344527641305
P        14.49283713673906   16.62417503166779   10.32861348187570
P        15.97373755989454   18.09904992376056   12.79419172779079
P        19.47731848509913   19.06381490053971   10.98528098777092
P        17.84282951293239   15.46570855265649   12.48884614750137
In       13.51934066256906   21.53038226420526    3.00112388703888
In       19.67641389233005   24.21337430046243    2.31689894687098
In       17.22495863091562   20.96970797537715    3.33073510324715
In       16.19208892049444   24.24379345275719    1.23992024351825
P        15.58099705894391   21.92785114389609    1.74075339091869
P        17.62213548053738   25.57321365271588    2.72520892593444
P        21.53414479432769   24.97158409959647    3.81362157207307
P        19.28119466171682   22.28444510842627    3.84431453745336
In       13.55263987569786   21.11522694810649    7.51830659408562
In       19.16875266130159   23.54854237579920    7.58764210846836
In       17.29662627115493   20.66813543247115    7.99668076660106
In       15.99881976716144   23.68216885853532    5.82464506181248
P        15.57797875559918   22.45050552445466    7.90073343046452
P        18.32467506662723   24.48672186434224    5.42499305039605
P        20.85701208954718   25.03466379330285    8.65760500116594
P        19.23841014870716   21.64388579404640    9.21735410046273
In       15.67478785856800   20.22313944058480   11.53371928742987
In       18.98685750894405   23.33332002298282   13.08169592011997
In       18.86056935912507   19.96677701732537   13.23395649311116
In       15.71970778379367   23.33048244011620   12.89983166101779
P        16.68869047807962   21.15101068791487   13.60523113728818
P        17.45100005604666   22.93396251250973   11.13991438169912
P        20.08773645886208   25.56149853739099   13.05341454203981
P        20.62318994483541   21.62997392716217   13.85124627229854
In       18.48248636603871   27.73468136733544    1.95220718592650
In       22.47154583021208   26.10746951211270    1.78316042092180
P        20.86818504303130   27.96160728011204    1.64347634332899
P        24.50610543507638   26.70887468840021    0.52605478106162
In       17.90114627184048   26.73817902833463    6.41406495416763
In       21.75221867597050   26.71754197524229    7.02809800767714
P        20.02348184819090   27.32124621961437    5.37006233611694
P        23.55285864961297   25.83990037826556    5.55282418452826
In       17.30757757731950   25.27232808547111   10.30826480779079
In       20.90419213344354   27.41137249589958   11.61545171426924
P        18.98447347837294   27.02118023906297   10.12264853411465
P        22.75802139193458   26.45943645765423   10.25089630130878
P        16.37404340156055    7.73640035580532    1.52066662344116
P        17.73276469599340    8.50991697650377    6.56036184048261
P        17.51267213394460    8.85379110289878   12.99817560476867
In       13.62432534599048    9.44976453719350    2.93592018864771
In       18.98460513105431   12.30139979156212    2.55640967661976
In       16.95332842582189    9.72537251221219    2.83108579676305
In       15.20797002360548   12.50819728085931    3.28206919978807
P        15.26609049309666   10.35501584406479    4.55911113591484
P        16.82525849070231   12.85200210745735    1.41706481377244
P        20.78648590382732   12.67176867994778    0.87881721591224
P        18.84461859838983   10.47454777675073    4.27427052525215
In       14.13614077129370    9.28777974932117    8.92623602603368
In       19.30145695251372   11.72109510001368    7.95230484078346
In       17.65531966225910    8.92589312640583    8.97728891684856
In       15.90710974524492   12.08195846495551    8.45653063626831
P        15.99264360594964   10.31897053113156   10.21816106728336
P        17.29937007949421   11.48114474434365    6.45714540302593
P        20.90468662659136   11.08230554118565    6.10882635734566
P        19.73427529984488   10.07184027110948    9.77104847020460
In       14.37460465012785   10.51736587510748   13.72747240985628
In       20.36353745237177   12.14288427818738   13.03584912678405
In       18.15098564211032    9.68884488506079   15.20203758144229
In       16.96218925648049   12.59693318917151   13.74876614484483
P        16.06853569318536   11.00668008013960   15.44330372493304
P        18.23979866161650   11.59335674580646   11.82076566810545
P        22.18844629153437   12.01735632820503   11.33954476750972
P        20.41651177983944   10.67366065316354   15.02343989702954
In       17.39283634011553   15.20256773559876    2.01299105285389
In       22.50969535964995   18.27777021352663    3.14368988118124
In       20.77034101227196   15.14489985977302    1.08229843407900
In       19.09501098003990   17.80954124788316    3.40258595887595
P        19.56822028878550   15.37330294169622    3.23851854769009
P        20.67716508951754   19.47359622901495    4.37676190547288
P        24.44136393720527   19.83907412389344    3.20033432668918
P        22.69242440114106   16.70128670781972    1.24469223735319
In       17.30399547487534   14.00878293093520    6.20646314082307
In       22.92350700777462   17.31824219311423    6.40214412828372
In       20.99173785817836   13.56650563047928    5.72474417358817
In       19.43246626167480   17.26325605601916    7.08865715714695
P        19.44255617092619   14.77271691632111    7.22853444909014
P        21.48103346653694   18.04475309979476    8.29605455362921
P        25.02915679658664   18.54752768620945    5.72039652469016
P        23.07013261133597   14.92514098177759    5.70449779415468
In       18.70117114181983   13.86761235132148   10.79275717596302
In       23.78360772586046   18.08159328061038   10.81342423499255
In       22.11618984221224   14.37932683714679   10.59061656946477
In       20.66055787898421   17.11075429186196   12.05380349506437
P        20.13275160945519   15.78301456296042    9.97282095783151
P        22.40392148847903   18.77479283637234   12.74846135778338
P        26.01803583765264   19.17386988699523   11.14568581419777
P        24.19873538223701   15.64274043436407   11.09262374623381
In       20.38656545339785   20.73789793824754    2.22464247986791
In       25.89522569240841   23.70891212491409    0.93259282726240
In       24.17964697927969   20.74173446217991    0.90351943652127
In       23.02082589365376   23.06158665328635    3.18569484724388
P        22.12540757549462   22.11696057688646    1.08769566995872
P        25.08851503480455   24.45621130241497    3.15931132214879
P        27.85838399298946   25.11597951462966    0.49851550260245
P        26.61385512336860   21.30969388962838    0.93218648358712
In       20.73341794602299   20.34648857475528    7.72543393389586
In       25.64043964323985   23.28053558319927    6.95559552775507
In       23.98453122372646   20.43459344757932    7.00551811595255
In       22.48365362110322   23.51707119072884    7.50638930316289
P        21.99135814982758   21.58748990247096    5.98253527589089
P        24.40548511086001   24.76179094179951    8.55454290474929
P        27.27704042532723   24.50128789619279    5.57920085910857
P        25.63024971017955   21.40445646471117    8.60504331005610
In       21.79659353919995   20.97976196161747   11.77047934106018
In       24.91578194866670   23.87193447923874   13.82327200636109
In       24.85826812859102   21.28990989306197   11.71393236294988
In       22.06257645788616   24.26145633147147   12.25821373426895
P        23.15442097454904   22.74126510697545   10.57867030330650
P        23.52038968373054   25.90180173791204   13.44242391761530
P        25.79399578538165   24.17477014564766   11.52344145102117
P        24.35662977273093   21.45180939731668   14.11854626861360
In       25.72653761655936   26.78399714227521    2.63585734493217
In       25.27297954700423   26.60901333226543    7.14506167865493
In       24.47079799303765   27.40987106330245   11.75332218952114
In       21.63930727102261    5.93479037384707    1.97226095318715
In       17.90686440278404    6.09157254237623    2.45878172363596
P        19.97912462097532    6.88059744919466    3.52053859121048
P        22.31177033268787    7.73233313153269    0.48255400373986
In       22.25822990138177    5.67600250774254    6.61503171381064
In       18.16897472996215    6.11454588397267    6.69220339790466
P        20.25414129300161    6.10587113374694    7.97473530734146
P        22.46677403414333    7.74427087275219    5.31834023926710
In       22.14884630146184    6.03209384636425   11.37517332982017
In       18.44809469727760    6.83054457155311   12.02836750395869
P        20.61969718305506    7.93931904902180   11.66720445585513
P        24.28443815809808    6.40343046989990   10.28087431107652
In       20.34610387188995    9.21018378098032    2.69875032733627
In       25.88463589665162   12.18964988399160    1.89978757148228
In       23.73465838144068    9.27959469738196    1.75631056077405
In       22.48853776015243   12.39301778064641    2.65054269541573
P        22.44659312553546   10.13239814745991    3.72105321499669
P        24.56974556924288   13.35651651495184    3.67056265211650
P        26.84161894992262   14.03937080534602    0.58520399289760
P        24.33155591303221   11.16126657975930    0.29208487573290
In       20.85689790617171    8.50471695128105    8.17757481254555
In       26.19568140314893   12.02669279568237    7.09103079313474
In       24.40604283836678    8.76052039165461    6.51182076283804
In       22.68541325874505   11.22073816522896    7.84756618415951
P        23.24969893601484    8.92535951454894    8.70051459170503
P        24.61681618349108   12.27357581071284    9.03720113350626
P        26.56814354371338   14.09528105102106    5.75772275041274
P        24.63934450564846   10.99382425310540    5.44497739084998
In       21.27170212660091    8.60715289240401   13.96107719139342
In       26.69109689191437   11.22436868289862   12.14134596954841
In       25.26902060589740    7.92206906982735   11.95420933539991
In       23.51213089478114   11.02287646034782   13.19151784880637
P        23.74713967164034    8.61988447465523   13.77093072486224
P        25.45120850471682   12.36659370208656   13.95321854562602
P        26.59784534941554   13.35969796479479   10.88344056614739
P        25.13780531356946   10.00805037597892   10.62997937271500
In       24.54540342005016   15.50255346931558    2.38544585358202
In       29.76155353885492   19.28472412521679    2.67189287244823
In       27.91596196113417   15.13677476403669    2.49702143216896
In       26.44507993688292   18.53144548730792    2.50271319899903
P        26.32213264339229   16.45796982024355    3.89185023707315
P        27.87996592232769   19.60791471397275    4.27083120597457
P        29.80089384027165   21.09983717154000    0.99875624119674
P        29.36024614035109   17.01078742545707    1.82573981469939
In       24.21541662759070   14.46373298599272    7.86053179839983
In       29.91949147365708   18.22796764443380    7.46385958373199
In       28.16287658385683   15.19465947994203    7.29592304718736
In       25.99762057670116   17.75559032857890    7.88057560274747
P        26.26255353400163   15.49112188103262    8.89732331064601
P        28.01357125374481   18.79688628497161    8.97809722560848
P        30.85029600598685   20.27043868998141    6.45102857073806
P        28.30621293090913   17.23477024422205    5.86799778262037
In       24.57751421587602   14.59891106380655   13.30911042866826
In       29.24670627162286   18.21586929741198   12.45843006067165
In       27.93690127372128   14.74653495242853   12.43802930085521
In       26.06693257205950   17.98040787139666   13.33216109967789
P        26.57342947859286   15.72838932266090   14.24148480889354
P        28.01655568597110   19.05407897113625   14.43660820691490
P        29.03273794996540   20.40837726601059   11.33077304876304
P        27.97559689492871   16.72794862092622   10.93365962906464
In       27.47520793071991   21.81977138823370    3.20812551405021
In       31.26677987345372   22.43585324583370    2.41773325153354
In       29.09048304019683   25.39759862787921    2.56144718726926
P        29.41525163314082   23.28948169560193    3.79334484757132
In       27.82316925608316   20.85002175666294    7.55050596632641
In       31.16483355833905   21.74229270221412    8.36095558874677
In       28.86651598914618   24.64084548246214    7.43143030220749
P        28.93956620509281   22.65905981823057    8.88014770394109
In       26.78960847508332   21.20313302633772   14.62652667192991
In       29.99601580349551   21.82807207251055   13.05648601867060
In       27.93585037522697   25.03538953865972   12.32821496764656
P        28.13330088402317   23.17582431427573   13.92921207743328
