70
 energy: -4.087633574440 gnorm: 0.000567450362 xtb: 6.4.1 (afa7bdf)
In        5.39672329844541    3.55753066739424   12.56154193741630
In        5.25860323578194    0.36966905839256   15.14233736763778
In        3.25726824700532    4.43517712036540   15.62856266889433
P         3.82949982847333    2.11892195802207   16.00811077235823
P         4.68409057478305    5.41856578967457   13.93657357388584
P         6.70702789230996    4.54835143023413   16.78937826763184
P         6.62633770574000    1.63288839772311   13.51189834289936
In        1.14281638295539   -1.17806866188331   16.12859555089381
In        2.50871877587255    1.48920954418396   19.39915360857391
In        3.16635174650653   -0.79241384469763   22.87990044142358
In        1.53115243659852    2.60488332718143   23.00668732238406
P         3.10272978942489    1.21698551345709   24.24387326402080
P         2.03298764734130    3.41973356606114   20.78068667445051
P         4.81018217449139    4.20755938886853   23.01916100938819
P         4.05112947567957    0.08560184204634   20.73539464219186
In        1.37578807369542   -0.88301597287765   27.44056848673650
In        5.62733578842508    4.39996672773244   26.84111239991417
In        5.81068207955670    2.26927266731134   30.56099700766485
In        2.46017807552607    3.39659593950314   28.18336686190079
P         3.73983680964446    3.48456542807262   30.23176135811228
P         3.41862719324332    3.78398671720379   25.98798462836929
P         7.11230809178331    5.75594294537217   30.01445929942382
P         6.52924368153778    2.51227332401881   28.19183156600797
In        6.88801328051159    0.04456525604965   11.66373941564051
In        9.35670644248274    3.03368538416900   11.75288187478142
In        9.26871776468640   -0.27148824944351   14.79908388584420
In        7.83907723279082    3.05932706347883   15.19632809758946
P         9.03824776783635    1.36582856320189   16.60399676121594
P         8.71372537635976    4.62366456919333   13.47482917771137
P        10.50709928525846    5.02553407868785   16.54531720086683
P        10.34037229467823    1.44974296645278   13.38028629096562
In        4.42975296523708   -1.96746128425858   19.43689303665062
In        6.39301092288632    1.05358144543041   18.64285449234043
In        7.24855202981229   -1.20195776347112   22.20263288927406
In        5.15614792545533    2.13477302184640   21.72827336879762
P         6.46153708193119    0.78435822368915   23.34908991074046
P         5.79472872713878    3.21699175785018   19.58379830103826
P         8.43653478965109    4.35480331620130   22.34906520620478
P         8.00637711374261   -0.06984647688120   20.14310624953088
In        5.55286488782741    0.52402214042612   27.14104438578358
In        8.39031742648963    2.69199372254698   25.55375395700346
In        8.87826285005148    0.38045825690886   29.19088100650859
In        8.42343238211594    4.04576142426951   28.85149347629997
P         9.51017239944281    2.41013258420227   30.37435741067235
P         8.94445172635614    4.84689670006526   26.55449870648216
P        12.15577102020099    4.41642547464805   28.84509613906025
P         9.45364961379322    0.84860224924586   26.82872801444818
In       12.60799293829442    0.78475968033561   12.72086747916846
In       14.46114126069898    4.53578639337082   13.43330300760896
In       14.54172712596101    1.33092755344025   16.33634532043375
In       11.14699410153340    3.14602501823010   15.08485339584425
P        12.12416283431152    1.33994378178108   16.46656246607024
P        12.04615412683952    4.64632075042169   13.34480221445028
P        15.19765505901323    4.68086000662183   18.80636683281245
P        15.55431846114627    3.10597660873526   15.04606692825129
In       10.22484763290123   -0.78087859862507   19.41358703654986
In       11.66064872144846    3.36676502910291   19.50420180733932
In       12.31702405362319    0.82908391578698   22.26722161369774
In        8.51587792647755    2.16742253183222   21.21708353500794
P         9.96068251888733    0.95909056128025   22.81260772154156
P         9.26068259467914    3.33301535418916   19.17301606594581
P        12.07297966059444    5.70833857613610   22.70968744546898
P        13.45590651557411    2.38641722944764   20.80072156449907
In       10.94057442625811   -0.84518106161448   25.88694866067429
In       13.91040732050179    2.93733041714512   24.96519266610354
In       14.15784631407794   -0.03901723162954   28.15368050678629
In       11.21322969196879    2.52076905677292   27.57846697432403
P        12.18981066047727    0.92124096128833   29.19219400075568
P        11.68688541482847    3.76632423485475   25.48814133007179
P        14.72057082826469    0.90826443319273   26.00161511910427
