52
 energy: -3.644330736991 gnorm: 0.000542334201 xtb: 6.4.1 (afa7bdf)
In        5.34480510184385    6.92963961576846    4.55081210642825
P         5.22013943540775    6.27221635041986    2.21920974716295
In        6.68535207337813   10.07300314326578    4.22076742734816
In        6.39631941718416   14.58866625579836    4.95123953514972
P         5.39379993238363   10.04936405695810    2.16955853824969
P         7.47910382072026   12.41841201439649    4.54716979196238
P         7.66842272112958    7.76967270764314    4.47117876027115
P         7.03673812242011   16.78794091101394    4.15336736177763
In        8.78790600318802    2.36344370322882    4.19073480169613
In       10.15433623128719    5.58662474009112    3.99177487872216
In        7.01692460298099    4.87919752424760    1.38049438388025
P         9.35965136138855    5.62595576126154    1.63636656173760
P        11.07350323042752    3.24563871470968    4.22304423226563
In        8.36878930156186    7.89543083171529    2.09208463684984
In        9.93388161050984   10.34187404661469    4.18965498026154
In        9.80996297317600   14.86435281879993    4.07065228706822
In        8.06739638815289   12.54687820419547    2.14166111247157
P         9.06423692631607   10.28290873391895    1.86868085092519
P         9.12337925220335   14.75870735375144    1.68985114708550
P        10.87763306494859   12.63718082034464    4.39796977799613
P        10.75754893782802    7.99384603805786    4.33101452856978
In        8.03973785203838   16.98266513452141    1.92877020859296
In        9.70806548761448   19.49331936300317    3.86436193356265
P         8.93494018513982   19.24167430605390    1.54877099797042
P        10.68140830503266   21.74016618497378    4.11418804427983
P        10.60956695201271   17.21363879321692    4.27313826078794
In       13.29807793207372    6.02499945720830    4.11200260321265
In       11.89642410765259    3.47968545466090    1.88416386948943
P        13.88040750805434    2.31377185836032    1.08656270730823
P        12.49910366178205    5.89005566191605    1.76490853055484
P        14.02214657672677    3.69136208514081    4.37299835398434
In       11.58497728016748    8.18180415496723    1.99305286685806
In       13.42638119837763   10.46130106832867    4.11965310950969
In       13.19078979716524   14.97035250287897    4.13029421633667
In       11.56197156718986   12.60542547362815    2.01478761577367
P        12.68453077657814   10.39970100485716    1.75597006983186
P        12.44955389853169   14.91323022096171    1.76920355487504
P        14.32041976831622   12.76792782311530    4.28775803460255
P        14.41883146929122    8.21099161952678    4.40540715437056
In       11.49484512171955   17.20395780810843    1.96058853720128
In       13.08688206128142   19.39825618721270    4.26103998302316
In       11.61705254839666   21.82902649933301    1.87386594859117
P        12.41239337830493   19.50805895969564    1.89536037426194
P        14.23308904968694   17.21773437555604    4.23644363656020
In       16.38335559654578    4.29095435242453    4.15898752037683
P        16.28804609740475    5.98985526633700    2.42506491770700
In       15.09181849052953    8.10375146916120    2.02268811848586
In       17.33932577439004   10.45114749473194    4.01995542412149
In       14.99565695257514   12.66094123839755    1.91235672189065
P        16.04269122203351   10.40376492936602    1.96998435303094
P        15.64149261541101   14.87012484617587    1.05122223861886
In       15.32736125956380   17.05296005998930    2.05568264634214
