254
 energy: -18.891460492499 gnorm: 0.000113401653 xtb: 6.4.1 (afa7bdf)
In        8.55764483807033    8.68478808117951    3.91836402121043
In        8.12084258989677   13.04335554481268    4.74410983964659
P         9.41063191044914   10.92417264515258    4.56813094784243
P         9.80358843343556    6.58758303599501    3.61777051024956
In        6.66774155956572   10.13109923961879    9.71364341910206
In        6.71251497983812   14.48563038456642   10.53163130046948
P         5.80983813008106   10.49741232076867    7.47483533023377
P         5.63581514832605   14.61295403639156    8.36206815688402
P         7.76228487106849   12.21167543300257   10.57030180579679
P         7.66527736051607    7.87535160658817    9.73410329266644
In        7.55800781724300   16.60302277128017   16.40022616440401
P         7.23550283956585   16.72870665209444   13.99222459811404
P         8.33012142265066   14.26625546871107   16.41418971551145
In        7.64121474450219   17.39223813288273    5.33026651300831
P         8.48095564692337   19.67050530520047    5.78756448526523
P         9.00859354672953   15.31074415345866    5.24381970434942
In        6.77446357609153   19.12108648531233   11.05759348452960
In        6.86534168677856   23.60860758377020   11.65410935421198
P         5.46991410623734   19.17319556750894    9.01213238349079
P         7.86300375595348   21.34883174849014   11.47354444158585
P         7.62642474574719   16.76022464925266   11.10023966667983
In        7.88427031417865   20.81025085097882   16.83758697987495
P         7.85885118352434   21.26153419360858   14.44223173112192
P         8.97735318485329   18.59908122490312   16.84007310615327
P         7.84962588472275   25.75542165327873   11.08824586515892
In       12.60797894168454    4.73234822429240    2.65459475546553
P        11.56433639304601    5.17943498890587    0.47923585836752
P        13.87112279394440    2.62671778312833    2.41473616904216
In       10.22069130940570    5.45005325227030    8.85626153850149
P         9.79131550266382    6.03269728681135    6.50252097403025
P        11.59631848355220    3.47586850587129    8.32879939708939
In       10.25271841079294    7.09873450301796   15.03670574594821
P         9.19901974260255    7.59407245989767   12.88661131949955
In       10.17028494510066    7.06057883382470    1.22839138141013
In       11.97641424526523    9.03545940989169    3.73554180181310
In       11.54132903373869   13.44867117811268    4.50147960583700
In        9.66416286454307   11.41002484197499    2.13440873701336
P        10.97335354264600    9.39282702202672    1.50441302220896
P        10.56638412398564   13.72313877566368    2.24503652933272
P        12.78099558235797   11.26581457008772    4.52649576002841
P        13.34187972949770    6.94119212816348    3.57577092067524
In        8.63150788236426    8.01398934751111    7.47295647091188
In       10.15316919206804    9.91259718505773    9.82144245828179
In       10.04265761888814   14.46694545064756   10.48471376316616
In        8.53702182326532   12.45327934277530    8.22518916905262
P         9.59182127469810   10.32581373944371    7.43300613243037
P         9.38320602773130   14.80194271495651    8.10823143849420
P        11.00733019637423   12.15724846591569   10.52625351641609
P        11.14266408679275    7.63081379912747    9.62552442357996
In        8.37570465605628    9.83075159598802   13.39770906669201
In       10.82447232319887   11.50581490447844   15.71093933788775
In       11.07598473492282   16.06092830772993   16.45439549903286
In        9.35892340871071   14.19610992617306   14.18592498037713
P         9.79742263886653   11.84140478333553   13.47206387569450
P        10.70089915405500   16.30962832405393   13.99649349234647
P        11.85798841592920   13.69026145474431   16.33115336651382
P        11.51690665972038    9.11234971149329   15.69069102478640
In        9.16991914234833   15.70828491334071    2.78672313394430
In       11.06187537516761   17.98698679808714    5.06107731696764
In       10.52390768884006   22.74178460749775    5.22561682670820
In        8.46934829343793   20.04788720977313    3.34934144844693
P         9.90882214275455   18.08050922053953    2.87228086957894
P         9.14903164070028   22.40383188782023    3.22367213488853
P        11.50712363726730   20.43191614461330    5.40167581182160
P        12.24016620044866   15.76045900995320    5.15638546349882
In        8.23424587200599   16.93724830854602    8.70839392147804
In       10.11085969336515   19.00765377911914   10.88439132492111
In       10.36003496300478   23.52787822779325   10.88004601540132
In        8.13887318884944   21.44059806722345    9.00033170320707
P         9.21480025323673   19.23458645976665    8.58460913756155
P         9.31337915245892   23.59195199151219    8.63808095752646
P        11.25459492752536   21.20124198489057   11.17317343787021
P        11.02014802015703   16.68596091014632   11.09607764893738
In        9.92733934185950   18.62277664445124   14.54916620859289
In       11.65835821842991   20.61914239459510   16.55159060061805
In       12.26846522668581   24.78238865747743   16.35811303526581
In        9.82786294702877   22.78243811009367   14.40740234591001
P        11.20504959956560   20.73277137462782   14.09813595569558
P        11.22267825043117   24.83145246362539   14.10894074298564
P        13.24599233656775   22.53295740710682   16.73409783518170
P        12.28745850560916   18.21878390261160   16.80779913814034
In        8.40310473944792   25.78849985352439    4.96679114431001
P        10.79855988520903   25.25805707526748    5.08777523454285
In        8.61559525439923   25.96775752786411    8.77522864877322
In       11.56050643427299   26.86999597316596   10.40557991113173
P        10.96780591052213   26.32849285728309    8.09123368384244
P        12.57628730065691   24.66805261619068   10.96164031340649
In        9.96951153950912   26.91621946932909   14.24303481743984
P        13.31347490644616   27.00111361807039   16.47564165586239
In       15.99983305886168    5.15879501951138    2.86591423672141
In       14.76684017329923    3.17305493608746    0.21557610602198
P        15.05684981896431    5.58284598891583    0.61112025558703
P        18.17551192275009    4.20761454729449    2.33383776399617
In       14.34500683347632    1.16305884090979    7.85614933746670
In       14.05367709588216    5.65497302079658    8.79992720336996
In       12.79998885580313    3.87453754776371    6.22857204217254
P        14.01655456201288    1.83478296267035    5.53355204915760
P        13.59570612158977    6.23626369553436    6.42379335151534
P        15.08685348220635    3.41437720276470    8.52410324738107
In       13.81785604681537    6.65648124841804   14.97835837727230
In       11.75679933402650    4.81598324363197   12.31107338343905
P        12.79926710289081    6.98622453160749   12.73322331971553
P        14.62136884025942    4.34728831124433   14.65873205114366
In       13.70165009208412    7.58308546336474    1.18892508287162
In       15.37834653411184    9.50169428637735    3.78075081751048
In       14.82935909016313   14.06260323051477    4.54846949359550
In       13.25409254428639   11.81406532778328    2.13705850871337
P        14.64187164349428    9.86880864976060    1.45612662751988
P        14.03269017791971   14.17499701754700    2.21586990039360
P        15.81081976776129   11.76568890085927    4.74151249262996
P        16.39637258449597    7.26271783809877    4.14555223566059
In       12.14110083080613    8.02778478720181    7.38935339047802
In       13.51790492158234    9.87846289772921    9.77475771941617
In       13.34991045844426   14.39801593584765   10.39184404789891
In       11.82610512633165   12.46055628294019    8.20047428582251
P        12.96086881617567   10.38962381428907    7.39595822720922
P        12.64822922576792   14.81521827417161    8.03625449065556
P        14.34011285620905   12.11831810510165   10.47052598942563
P        14.85709379392528    7.77625282320792    9.82856906243827
In       12.07066743384486    9.30474042371654   13.28321318029894
In       14.16410438988542   11.15070134870606   15.62190937338665
In       14.55498835782823   15.75867701667290   16.32319447295053
In       12.70265346215728   13.88558947031657   14.01632184227174
P        13.19011824596983   11.53147024940222   13.36494266258843
P        14.01618415906897   16.01767229346797   13.89607013471347
P        15.21331383453187   13.35530557309365   16.16523569455399
P        14.95392346020209    8.77005568501894   15.67182289125941
In       12.69483015848945   16.20418878912788    2.74595638750831
In       14.35489911884512   18.77750130674892    5.04067413571297
In       13.65894050464025   23.41386495506285    4.83599697055412
In       12.05287282586835   20.58247480419114    2.99135716498160
P        13.47989513932503   18.56359172672449    2.73320466469589
P        12.68636331064765   22.95256001613299    2.60827296994327
P        14.82633557873394   21.24215544932488    5.23279621673114
P        15.30861675132315   16.45328840664839    5.10518151728500
In       11.60508521141407   16.97040805581005    8.69835594853031
In       13.53730037259498   18.85215892785036   10.80722475119540
In       14.86390394450276   22.30419033211052   10.59110440839878
In       11.64795085453599   21.40068298223234    8.72625886652743
P        12.71527170374326   19.16848369812715    8.49439995226431
P        14.03840434966749   22.01557896883526    8.26748918085326
P        15.75255211188705   19.99338592927953   10.96400898844108
P        14.43895181989306   16.53438716971477   11.01977275084117
In       13.24091836109225   18.29089182760312   14.53027088023176
In       15.60747342638769   20.24673179250128   16.16278446628041
In       15.79352652184147   24.74750120661904   15.80434706276017
In       13.70285784568496   22.54012503899957   14.30438609427934
P        14.61186336583403   20.26085177687252   13.88042225348431
P        14.55401995526359   24.77487928770395   13.64658977027317
P        16.76320813004152   22.47293014536134   16.19314660276227
P        16.01195288524679   17.78907845994497   16.37645268344560
In       11.24844275822597   24.97194557374991    2.65424926936793
In       12.61569260070768   27.79224368123558    4.07923523549500
P        11.70424739704423   27.26322511586964    1.88598283937346
P        14.02046877731717   25.88220513050160    4.79849216241572
In       13.34722621773403   24.40121543168194    8.61870370858128
In       14.90068982054463   26.94374187602169   10.19339690870193
In       13.92996951786735   29.03667061316984    7.40692052009840
P        14.13919926275139   26.62705095909874    7.82502457029668
P        16.76139436720479   28.48831257108257    9.91239235754058
P        15.75279496148512   24.64560285909552   10.69866409696596
In       13.80661986556229   27.10629688061557   14.08041786263662
In       16.04557024651530   29.46033168884503   15.66999887084335
P        14.83631559801161   29.28626206115736   13.56532422217727
P        16.63861393653485   27.08162840936158   15.86179483686736
In       21.04735728319548    7.83981599323868    5.73777963451445
P        19.75903169366041    6.49119852294768    4.18090630092381
In       17.54317363670534    5.68122633807231    9.20396162539071
In       16.22288655073600    4.09848870862122    6.44264152401397
P        17.00273969099567    6.40123347683156    6.91222843274004
In       17.23317340250232    6.35135938068941   14.80646506788156
In       15.59044403352785    4.33182987173414   12.42999961582525
P        16.16424982439416    6.72617881775133   12.60981573108882
In       18.29293922179006    7.65504870213748    2.57798977588285
In       18.44042705846341    9.98788965561668    4.99380516256013
In       18.10837332980540   14.79488111180163    5.14323196230456
In       17.13494980882649   12.25652800142934    2.68935003645647
P        18.43128989947634   10.13943060484869    2.52084203973330
P        17.81866054574557   14.65852511690447    2.68746743747447
P        18.71836681664927   12.40041427839342    5.62291172390825
P        19.90879279791806    9.62440527759505    6.95902764061735
In       15.83417556705201    8.47028963110670    7.65066497681831
In       17.16234331750197   10.26107762184391   10.06313967057218
In       17.13098893418340   13.97369216881064   10.05977478939221
In       15.00338145745898   12.54576941004257    8.11743423722096
P        16.71323828278680   10.82132687850892    7.70124688764587
P        16.21584971889618   14.70111175197055    7.87561234774552
P        18.37916996169798   12.12075273671674   11.19689135053196
P        17.90967716012060    7.90631309306325   10.20666937232870
In       15.42943617312113    9.00709923052590   13.25019641144639
In       17.43673730215949   11.01484100191128   15.48629915383005
In       18.36365844822920   15.22449914689553   15.76320728038922
In       15.97351258124470   13.67708527084091   13.83484985100823
P        16.36629187712725   11.31223510447850   13.25964018328821
P        17.67870232835647   15.43190754705367   13.38215259660472
P        18.96272481848505   12.84865201704624   16.15784915646148
P        18.02399842702344    8.61452297607533   15.38611074744798
In       16.35187351895910   16.68239198725324    2.86609410302062
In       17.62878061541102   19.50056884564168    4.99602866368316
In       16.93028366608450   23.85069740892895    4.70727802404780
In       15.48429724596736   21.13026950830595    2.84172247771329
P        16.90676889713896   19.09814169201049    2.66898408881817
P        16.00794048247136   23.51992307026061    2.43860719996873
P        18.37308604670649   21.87980738294148    5.20775145701830
P        18.61135732102021   17.24483926872335    5.40936170041865
In       15.02026787652308   16.74864535707997    8.62620133728289
In       18.14741796871795   17.67533655133168   10.37892762176804
In       18.14643016320403   22.34216360767702   10.17234357676818
In       16.37508363839725   19.88407224032174    8.57790394578625
P        17.29313896515331   17.62422506950978    8.05980378139233
P        16.99809494939348   22.20891417976586    7.96061723775523
P        18.93198139373866   20.01760743787724   10.53274302437996
P        19.08966132535195   15.39771286252665   10.58757474133413
In       16.78447106952443   17.66809054194639   14.03476875448758
In       18.89655182714748   19.80246503418872   15.63292294970500
In       19.26218196684511   24.52452198392437   15.03965253083025
In       17.05058442661583   22.28259577159330   13.74175921912809
P        17.72096470941730   19.89617233839151   13.44951327693081
P        17.78440229372003   24.56688632093114   13.05976869153283
P        19.74597817929775   22.12836591776919   15.40111007740751
P        19.49722589898115   17.42136413067676   16.01966486442295
In       14.61500297602502   25.56143473145024    2.41143781600702
P        17.49863192954184   26.19855977289082    5.02220216434351
In       16.61381390534320   24.64582895403074    8.35960862325748
In       19.72958271837703   25.86298927702281   10.18634921466820
P        18.68600534076888   25.93024299307487    8.00457970181672
P        20.04770997378582   23.62401851455162   11.13261466992934
In       17.14520847390981   26.94267966922982   13.44061784839463
P        19.01387655505046   28.48771043238635   13.24325665199665
In       22.99888616211237   15.77713495735508    4.54558234595710
In       20.37610750520721   12.75855095595648    3.82267962312723
P        20.85968896552010   15.16399821012245    3.56814715047467
In       20.36198721265627    8.07161796355108   10.26382384100454
In       23.02655924583497   10.63703626247322   11.32471009072360
In       23.25016749280583   14.02526706140236    8.69062134651114
In       20.13552337218512   12.14311091449858    9.42557188420509
P        21.54675223308083   10.08021350676649    9.47445755122254
P        21.17105616438435   13.43671882622688    7.57049402567072
In       20.40441194505277    8.76262423126853   14.77995784450867
In       20.15078769502633   12.57954954083791   14.01373117296045
P        19.61506495905600   10.33930893001767   13.08408526723962
P        20.88984164313197   14.84156607431057   13.38502217568462
In       19.65571170864014   17.29247514023829    3.15562147439564
In       19.59527532445327   21.72859084548947    3.07735309296467
P        20.62564381510359   19.54354111648795    3.31246807941466
In       19.82903613883527   15.42578537686959    8.23083992850133
In       22.25166614337615   17.94742213814924    9.76686216389461
In       19.64030904638218   19.99572254834553    8.14951758791826
P        20.68241703881253   17.73927243269171    7.92330899074982
P        20.38316140455631   22.29726377485829    7.64877554512478
In       20.37520824929785   17.22928013863350   13.71512284868923
In       21.86402334066473   21.50098767588595   14.32235983987999
P        21.20933962415314   19.47516980105868   13.15753114536032
In       21.75852256687381   22.71918752761381    9.61259795123925
