38
 energy: -2.004439155074 gnorm: 0.000557336440 xtb: 6.4.1 (afa7bdf)
P         5.36716693993969    5.85646965085853    9.12197220046047
In        2.06666249683993   -0.40213404316377    9.31237024258327
In        5.05326482943965    2.22942791739913   10.44281497604730
In        4.65711890214419   -0.64751059462374   13.64613120335885
In        2.61234176946707    2.89393416985775   13.06457089951539
P         3.35100056532588    1.16074178345394   14.57912771801280
P         3.82777411069804    4.12383132801796   11.36383333504147
P         5.78056084532087    4.17378823399535   14.40365643881609
P         5.98919289328962    0.41212272371129   11.84509246274985
In        4.72469510624211    3.72855843791474   18.12250196718938
P         6.11305199916547    2.20295489339372   16.85768255212290
In        8.07197589192327    0.04835250784692    6.52408025897565
In        6.00174210122764    4.27180082234980    7.43677866802572
P         7.00025865767816    2.17398708592049    6.77024518675686
P         9.20108051654188    5.96848912313312    9.55763755264776
In        6.57276333354474   -1.43489546651894   10.34647066058582
In        8.52562279518410    1.83647460446412   10.33386854679267
In        8.94779386166931   -1.04642884175029   13.57512649380430
In        6.88403903110916    2.23389646351266   13.34543439924948
P         7.74387688410390    0.53943058279985   14.96704280130308
P         7.89853240303544    3.77586333894245   11.67207288533390
P         9.53428148886753    4.21633486190042   14.68687158020799
P         9.90174290733643    0.41376150411145   11.83379091412046
In        6.48881257986063    0.46467051871575   18.50063909830687
In        9.05064180672202    4.46371046039884   18.37000158695540
P         8.24821941422477    6.32483811464163   17.07561725186786
P        10.19208822045625    2.65896914082291   17.17509632663154
In       10.39083901867447    4.62108491649627    7.97258737174119
P        11.46983070614442    2.53830238851130    7.49276355859795
In       11.32082930218596   -0.66632518349439   10.16052020749785
In       13.61647712963741    3.06001629795279   11.36824647490701
In       12.86235480587002   -0.51567305010817   13.71210724815360
In       10.43063396009182    2.27744730414782   13.44429320444302
P        11.56395466485259    0.90279612764806   15.19331906332304
P        11.24238843300264    3.51962086760355   11.47502450144487
P        13.47808529950947    4.34301187185032   15.55208548786703
P        14.22682392588077    0.92700654815923   12.32595429831424
In       10.83062290284200    1.23467508914263   19.02235037619520
