346
 energy: -25.798350713613 gnorm: 0.000165004969 xtb: 6.4.1 (afa7bdf)
In       13.25961789227741   10.41937951570531    7.05890258264587
P        14.68499828276413   11.82587168498002    8.50649738827626
P        14.11926004407355    8.22603890064816    6.45706643333710
In       12.98432684301795   10.65792573822639   12.22076878361870
P        14.46998534441985   11.99908137622842   13.68298814043038
P        14.57957626082906    9.56710426548969   10.70236994604482
In       13.50283354421565   10.60287632335110   17.36293183024903
P        15.57340640192817   10.80149529177059   18.69980039030537
P        14.79191840926027    9.71825894946099   15.45644136732219
P        16.73414143333387   13.39251694325903    2.00246276182011
In       16.61098466579667   16.27335016388351    5.24486246393387
In       15.21687790265577   13.43657784293595    6.66834615920353
P        17.52800532254160   17.61494136893658    7.04089597931757
P        17.32864782431713   13.90240506578842    5.38316519361228
In       16.27141188182721   15.65589537893644    9.93317791676507
In       14.27987613471097   13.86338587389852   12.05508068618997
P        17.86743458573822   17.11567634600318   11.05470029268483
P        16.21282002248681   13.23976424721059   10.60365680645690
In       15.78320430496495   15.82932002404866   15.18313913483667
In       15.58185457661686   13.17549895218580   17.94119518839650
P        17.78270237673930   17.17612146180726   15.45819749111698
P        16.41043518110198   13.46470431241315   15.60048699678088
P        18.02205990132574    5.49271607019391    3.50647071430097
In       16.69310681767760    4.69329106833355    6.65814529304723
P        14.96216154883361    4.42708631915651    8.38843395738771
P        17.96193142063182    5.37747923140935    8.70016785610484
P        18.24065907302809    3.17450524502881    5.46013330331153
In       17.37540760480009    4.67550501629559   12.11945789009663
P        15.58979489471798    5.65621832122712   13.52359532726765
P        19.49567190570549    5.67099377643202   11.22516238750750
P        17.30232214214490    2.82414769730643   10.48538690464699
In       16.07803135442215    4.53214125899858   17.56953215248756
P        15.10628569367312    6.38400463581848   18.89518500441302
P        18.17496851299105    5.20592486461183   18.72298880268053
P        16.62057110630301    3.47304492613342   15.38567857206885
In       16.99838673909003    2.99590791338699   21.58463789969202
P        18.42545213221259    4.50014105684550   22.83450747700148
In       19.72192940851924    9.22772992508674    4.20224339984835
In       17.48789975368446    7.43570222277437    2.09514763289941
In       16.24179017443641   10.38990275936006    4.12454617742238
P        15.99069242402011    7.97341714507212    3.97418276956243
P        18.44875051825012   11.27305760123274    4.80809884840630
P        21.96905095220079   10.22371278566380    3.78757211542292
P        19.36192403907198    9.00536153624842    1.76832973751599
In       14.69969495116805    6.87186077080364    8.42126841411886
In       20.26686628019316   11.01966702886474    7.86744508099220
In       18.30981481231336    7.53503744385416    7.48022674235727
In       16.82771022633971   10.67840622142790    7.92694710913535
P        16.54250079750791    8.44217054459854    8.98110843157162
P        18.43224333498019   12.14528454922751    9.13782757992572
P        22.39754989930385   11.72565418057887    8.94715669647604
P        20.14433615657519    8.68966623272313    8.70030504935793
In       14.74932158335138    7.56562390500773   12.18291296401071
In       20.33770635311002   10.92325615033396   12.77054527485818
In       18.33594889400638    7.82166417475805   11.78769486570080
In       16.61701006481128   11.01121924650258   12.85929426026350
P        16.63634458719500    8.60693935019027   13.43103269383406
P        18.53723153814999   12.16932392260768   13.95667995840213
P        22.63997345922626   11.39962549686055   13.64391575707233
P        20.09738335177019    8.51981148877959   13.40702842357157
In       15.35211813198152    7.75243039044931   16.86915701683566
In       20.62563605414649   11.42071587736717   17.01519402729581
In       18.42910453675233    7.66246495697927   18.43621746806267
In       17.43145329128805   10.59928174674786   17.04791820172131
P        17.68933467738213    8.25773935903366   16.15234961842917
P        18.70892078130242   12.34623333118061   18.36199893098921
P        22.47309990719657   12.07887244961151   18.58017142944856
P        20.23591879425490    9.35849849153287   18.34619838267441
In       20.43989831867997   10.56533500293613   21.89013488929031
In       18.44948049052962    6.78618011217320   21.87084079772825
In       17.34950899456431    9.72355488062890   22.83105414316719
P        16.42599335989963    8.07801847017397   21.25799106929990
P        18.21924806155096   10.78676055141738   20.74363281000544
P        21.92871678258646   11.90679777249192   23.35924965554948
P        20.33864197875998    8.19742985885031   22.63991803367695
In       18.87819529902547   12.42654048812791    2.63742201137254
In       23.88072109108918   15.70865563087762    2.45791618202514
In       22.00252140558885   12.67768379038554    4.25020619304944
In       20.24592298285361   15.55739685069506    1.84221393589095
P        20.06969046347938   14.21504513284753    3.91645690468897
P        22.23905919546991   14.20612239834962    1.38196923896025
P        25.77570390198990   15.48799167531125    0.88832139015191
P        23.75244987390965   14.42696491713921    4.59805532289112
In       18.42731359919941   14.13664673221831    7.62059393362197
In       23.37534315680377   16.88661648837308    7.39132609483993
In       21.86611190639372   13.99860802223430    8.08951880713358
In       19.94493019449373   17.21408904296917    6.96805806233470
P        20.07123091969066   15.58257427186599    8.84913259005250
P        21.71200287579060   15.96191612000248    5.77022620365184
P        25.42802952242481   16.83064650038226    6.01256059053344
P        23.78798212926034   15.16856211931054    9.18097836381068
In       17.84866861629294   13.96583196641041   12.36529753792600
In       23.99630622281039   17.13278458340525   12.45711778018584
In       22.19846485711133   13.59145816991733   12.50111504908209
In       19.99829350255341   16.35214058511297   12.02506814105703
P        20.08551013078002   13.95544600246614   11.24453155254398
P        22.11521379231534   16.85716238900097   10.87805636173916
P        25.74537911774526   16.38972207674902   10.84492363217042
P        23.53395029071062   15.15508070453758   13.91215204091779
In       18.61520523381558   14.13181922844739   16.61387987400353
In       23.76003129879085   17.33563325447551   17.36319504602344
In       21.96045251508755   14.29975702261004   17.56587890078596
In       20.21983011350487   16.89797229619950   15.42049480148302
P        20.77977952595664   14.46920901320838   15.39100425845478
P        21.44317149330585   18.09721629927670   17.15919975742492
P        25.39353872847465   16.67832402344645   15.62294500297196
P        23.76025421905045   15.38572156766549   18.91041854826537
In       18.24588547162521   13.08607773419022   21.68613744606165
In       23.98755476409675   17.05187587369418   21.95516184978579
In       21.72166574552339   14.25241966532434   22.57844137330594
In       19.74857232429853   16.08486917356986   20.10558527868047
P        20.36455788319369   13.72187020934033   20.55559137138681
P        21.85023938598269   17.12482190630239   20.75211945498944
P        25.86494368767553   16.67613028579203   20.39088591609639
P        23.85972921853728   15.12319760737731   23.48418465968214
In       23.57576617885104    4.91927055767454    2.15162747579981
In       22.01172083298088    1.54042344067715    1.42609596395471
In       20.04663085229081    4.52400264053975    2.49096137789432
P        20.45425968801817    2.19884236074521    3.17901615336729
P        21.79057233445091    5.94403321390725    3.54724155960195
P        25.71117727372529    5.58596528089800    3.25619473194329
P        23.40072740613818    3.24163319589515    0.33453350746405
In       18.36711408775210    1.33700905456384    7.05772789205012
In       23.54168142124986    4.68872968345844    7.15711414974210
In       21.99387000770221    1.63869682290736    7.07018970197233
In       20.16342128755830    4.48280919072151    7.94301937771088
P        20.11286572888822    2.09632621961920    8.61058883839515
P        22.06321618992916    5.86121812050980    8.78004134220431
P        25.68962684398949    5.36231692356447    8.26492480355101
P        22.11482403877883    3.54534886013328    5.45914488272399
In       18.71302199651609    1.57916545293775   12.03832731096156
In       23.97490494527151    4.99613959713519   12.12299850131873
In       22.11041288583555    2.12404430917400   12.57243355457413
In       20.74372803607198    5.37456038115338   13.35080612110141
P        20.01721176179960    2.99019246230335   13.57645883465988
P        22.84887964048885    6.76689584925656   13.48031851745871
P        26.24506489724100    5.57821757675298   13.09297394948515
P        22.27079946854057    3.77960090525602   10.72703396718547
In       17.57784098747513    1.54794489450216   16.56229493837144
In       22.73452189218773    4.31051649906825   16.59303411331755
In       21.64810892568258    0.80279607131945   16.36110623932607
In       19.38385642003691    4.87548213741583   16.57844440612870
P        19.86393854914833    2.43298271222372   16.80988762706478
P        21.29256462515721    6.01277362613559   17.71183235037268
P        24.59036627730269    5.55139986071691   15.49851152858663
P        23.74614129720586    2.04488232338451   16.65637754129947
In       24.06198519360511    5.15507338715084   19.86727453315033
In       22.02845960058128    1.48622010039108   20.30269831486095
In       20.73792518626412    4.12073347597378   22.03075380280306
P        20.44220019249362    3.26037636916304   19.73716636859534
P        22.64517127978435    5.69062547732262   21.83115921059051
P        26.04714382648269    6.62552008356986   20.37969949690961
P        24.13124551906653    2.74507258137311   20.46007607224576
In       21.41977959185114    7.61176090794356    1.73934694240399
In       26.47568937864796   10.81884586276248    1.72616789133259
In       25.05130517249309    7.89787990928970    2.54313825171364
In       22.96720660157284   10.57064808319081    1.54474955240656
P        23.53444458147696    8.32665032893135    0.64034505754442
P        24.58750869313959   12.46247183401470    1.39478667305874
P        28.66331358396458   11.81716511586095    2.40332541923560
P        25.52336366111633    9.94394861851067    3.90245349864826
In       21.73013225123328    7.65415473394622    7.09030932318632
In       27.01293003480720   10.65622801027796    7.75850007842139
In       25.23133808383900    7.50461945181369    7.05985591363391
In       23.72103102602842   10.67296748209517    7.13220924931875
P        23.52002581646063    8.65230671065035    5.66586468556337
P        25.60360821718276   12.04942465417027    6.24179298026516
P        28.62867059657559   12.07014707402136    8.99689297932744
P        26.54423188519941    8.49902665611026    8.92378840864232
In       21.77513129319262    8.04691471350795   11.61791688753915
In       27.06266621999073   10.96393303768160   11.86572626694583
In       25.57068855686586    7.74027682686422   11.99260584106528
In       23.88583334367489   10.73840724493232   11.58830630541184
P        23.87182830804246    8.54546297860596   10.36256164534367
P        25.43050444586016   12.59011553228744   10.89200058047653
P        28.58335933291374   11.78072301631924   13.64981903940619
P        26.09275084212925    9.52494068430591   13.65556296841202
In       21.37152252721790    8.16876718553588   16.47656084310328
In       27.08332763555764   10.54436132687894   16.82534163599295
In       24.54749864332612    7.52778683058820   17.02518213735516
In       23.95090290634354   10.91577723564112   16.96458213480070
P        23.44296449376623    9.05904201337113   15.37797805887564
P        25.65492662307880   12.28623256362366   15.75038543185362
P        28.62879865597461   11.87577674752980   18.24419237064871
P        26.33702401983638    8.68793464225953   18.32679113299343
In       21.79812410750328    7.72205009319745   20.67753980951836
In       26.94225302931834   11.00360090680552   21.15256046941398
In       24.73862598308834    8.09846392215839   21.91757504839079
In       23.76529511494423   11.55177476104984   21.72461100530330
P        23.48423200260110    9.53837817602740   20.30173518126238
P        25.46046413535463   12.90282349826129   20.46089722506403
P        28.85722130076384   11.93911374745551   22.43654748478670
P        26.36222892233263    9.56341384205437   23.08791970081371
In       25.68102818919402   13.34053372604016    3.45105914277971
In       31.09314293973651   17.40626617153313    2.62273149309596
In       28.81491220210692   14.29962464439147    2.27221682617517
In       27.07992384111425   17.16697598545068    2.13550427277063
P        27.14345831914823   15.33422568070313    3.81613019699501
P        29.25725630014857   17.45050117867066    1.04039636535637
P        30.79937704217012   15.14459133827856    3.55651050817305
In       25.47967952564524   13.90845061830108    7.87352113708357
In       30.95172483150770   17.23439652333310    7.17548403149718
In       28.73156574760527   13.80435341000032    7.18840644391819
In       27.49621019172768   17.14018811654601    7.31667865322186
P        27.40957547598824   15.16653417416303    8.83266693437883
P        29.17214915505316   16.47395931866645    5.60587813565628
P        33.24784850798009   17.06077471301537    8.05540837379557
P        31.00798821254885   14.77054676479136    7.48354462960926
In       25.49492972868817   13.94081522362924   12.96842198559007
In       30.90651802198082   16.50214572244095   11.32249076000250
In       28.87560068046264   13.92359490226079   12.41220103645616
In       27.49057470136752   17.29808176252424   12.35412781852632
P        27.38367998595882   15.31051683949895   13.83738366244865
P        29.31416260277346   18.35920364256376   11.11036533389019
P        32.35744969806929   16.10638213999221   13.28524432541028
P        30.00323143014377   14.41482239184474   10.25299859833422
In       25.34967404319166   14.08756255742398   17.45442251207849
In       30.66315506158347   16.92448415522846   16.33345512078334
In       28.62273078917717   13.82722287181303   16.70493550808123
In       27.18279205895328   17.44218579121525   17.15616637351858
P        27.38904299652936   15.24642910009782   18.31582862416153
P        28.94780468372730   18.63021589896494   15.94207427295813
P        32.23983208279266   16.92958765027940   18.22221153003447
P        30.27439651739601   14.78587566876026   15.11976280532759
In       25.93571556743182   14.11509840796237   22.58315046124586
In       31.07573729124588   16.21721494557925   21.78032869845666
In       28.98988769735541   13.91933797562134   20.94436331342846
In       27.87409983861487   17.56908914671695   21.51335368860667
P        28.06093181238097   15.41012394788178   22.70667562589183
P        29.80206917184013   17.32025482005559   19.99959978651180
P        31.32657608558138   14.33149814192608   20.16651852268564
In       25.81637011225260    3.09586472062901   -0.06186313912278
In       30.72793745892367    5.81692023826118    3.31444315097600
In       29.17820275983613    2.55547352105908    2.22102189398555
In       27.61623337788313    5.97893268515425    1.68657277193295
P        28.07838855950816    3.86768855385200    0.47761606685611
P        28.64600931857846    7.16043167805957    3.61746396898286
P        30.79108871008774    7.05081905204526    1.18613200235728
P        29.76547820157160    3.74877413549297    4.25209245625143
In       24.08791637162076    2.37410342653111    4.49189406882391
In       29.45110848139717    4.40633491582318    8.32519177507596
In       26.99936090224755    1.29187679549547    6.31557389658511
In       27.01071129573544    4.83100120150522    6.22896111082951
P        26.46447466495176    3.01844877115498    4.63166062588304
P        29.23184561312569    5.95488447913785    6.37210938591657
P        31.08456388174403    5.99175809729029    9.32332609211167
P        28.60781452518988    2.07609799813619    8.02746896059358
In       24.21816747667940    2.44536821250841    9.89607525396667
In       29.93588772831544    5.17506009814743   13.22633114896744
In       27.51134558191873    1.65704705510705   11.66890268480331
In       27.57546591577530    5.33736533990868   11.00843696600795
P        26.56211603580045    3.25322075227296   10.04018588665576
P        29.29618945204161    7.04010241769436   11.67434481575681
P        32.23440911802323    5.57205401805793   14.10240049111464
P        29.38470339271566    2.76066548289031   12.84535048903040
In       25.14366977424255    2.24854645908327   14.63959784860937
In       29.67952453233352    4.26401995306725   17.32244187142126
In       28.12654605540261    1.46807828957317   16.28532166673173
In       26.20627923455168    4.34859145204763   16.98236457153017
P        27.33557241137162    3.40903290811492   14.94164138427718
P        27.83681784330705    5.36453962896656   18.60733324648647
P        31.53705765779817    5.27573417074903   18.65715043817623
P        29.77333076124508    1.88611091679126   18.08518693638847
In       25.95085868994734    1.32580156786816   19.63004298290912
In       30.30048768510312    4.99934877723938   22.69298775658527
In       28.97877486963315    1.92467744056475   21.98762394660993
In       26.34317939092872    4.79997336406135   22.08283062784646
P        27.36358215459311    3.12937887986287   20.53492762024274
P        28.10130912929112    5.76960122793716   23.53024136367135
P        31.82462538219393    6.89253689093254   23.22902243753963
P        30.31984998689493    3.53156309120204   20.68147789758860
In       27.87149060218848    9.34337394479198    4.51558745687119
In       34.34619256496467   10.53949205222758    2.31149755729983
In       31.11296846473402    9.02737980586910    2.64464509833351
In       30.32850046686012   11.87415426206705    4.25122287310800
P        30.31678833199876    9.48401652599845    4.97214631580895
P        32.65593204733442   11.98288538099075    3.36625875653871
P        33.45476136636722    8.46212401557695    3.21885023088456
In       28.76870553655585    7.84465342499802    7.96057096229037
In       33.88469092220075   10.59899636404156    6.28748002409247
In       32.10736413339369    8.15596664726771    8.60526007859627
In       30.72830825695739   11.12713464796548    8.02626293251242
P        30.08172788401828    9.25329339032830    9.55496031140955
P        33.14355362158327   11.60190809241955    8.43031159408111
P        36.16522003621666   11.55820010958453    6.17920370228478
P        32.88193544679002    8.31102769745681    6.25011516739834
In       28.31926233428613    8.29180030856876   13.62567517986058
In       34.07633088299482   10.76186719802755   12.39015810949014
In       32.23302531284834    7.71089824780616   12.83265339241803
In       30.54813547319376   10.85377139273016   12.44388995633367
P        30.63595253080427    9.06915848368399   14.17167233772377
P        32.35911291523126   12.41148308154155   13.14000041053439
P        35.47857767507141   12.02459721623023   14.02035509977503
P        33.85736858758209    8.58878961612163   11.17789941497659
In       28.12046625037432    7.37644964224290   17.14197747761184
In       33.87835601369322   10.74788085208491   16.85546055248921
In       32.16036687102151    7.08674546750112   17.06706706005190
In       30.57006931349995   10.99124788419755   16.97395334367233
P        30.24921277141216    8.59704638310196   17.54249993333639
P        32.36770489338046   12.36897355594006   18.05497600489587
P        35.39463014204902   11.26059601001553   18.77229972089520
P        33.46636082006327    8.62312124796574   15.62336207993105
In       28.29461239106233    8.06421704420785   22.60833530409875
In       33.60443128839847    9.56233967085580   22.37555051487831
In       31.58712701870575    7.50618231029925   20.84167076313192
In       30.38133582102153   10.46708528515488   21.15466148236284
P        29.28363838936539    8.35615268088657   20.34404521127559
P        32.74729395236776   10.86158399562175   20.42403733070375
P        33.97659151909409    8.03509501595380   20.48957391109577
In       32.18139081843695   13.91876778148392    1.87021476644307
P        34.19681206886838   15.27414327064407    1.70364714170305
In       33.24048029402719   13.75236610446797    7.15998323211541
In       36.05940054989809   13.69493235711455    4.98815711793845
In       34.17804188757071   16.67431238134224    5.83292236698790
P        33.70730472830485   14.46248302597275    4.79610029715187
In       32.27505255236144   13.59808202799263   10.96438346651647
In       35.36261881174549   13.89540996420446   12.39855185119501
In       34.17362990169534   17.12045174432323   11.98259133556914
P        34.21752619048862   15.10422862587490   10.56836079647958
In       32.38876434617911   13.90411415270374   16.10234945209431
In       36.06898292750368   13.32925904098147   17.60187096551694
In       34.34354993006554   16.67049446530558   17.02029011913994
P        34.78598833908486   14.53592777125505   15.86573990623740
In       33.14359409071191   13.14352863949130   21.33760092776262
In       30.51365967288400    1.07729530530893    6.83016702156450
In       32.43071194573590    5.19564049154692    7.34295857312484
P        32.21383650108116    2.74683523778301    7.28138229291905
P        34.41781204910383    5.76152086564770    8.69265565601868
In       31.30070168411201    2.11745371695638   11.43213077932166
In       33.82464275515893    4.41502610465693   12.59888806932930
P        32.95379208526730    3.61750874374378   10.44109047063260
P        35.85164447358694    5.57727088660362   13.30874283148961
In       31.59712955231693    0.97348973547928   16.69976376087808
In       33.28075392541182    3.87557107069294   17.54377110354600
P        32.02993484861681    3.09648488567408   15.54514369565719
P        35.09560980065557    5.53657365367166   17.49126198296286
In       34.02276204520790    5.86492919628209   23.38072499246280
In       35.10439786448313    7.59248964690525    7.19129485051177
In       36.56435548246066   11.62159176518734    8.59461444011238
P        35.76169742960389    9.33274225344958    8.81092604971849
In       35.98386622987825    7.67563711526418   12.07008565843563
In       37.82748678047560   11.46572502663871   13.55064637819716
P        37.46708290257700    9.07186784010959   13.41867547598544
In       35.59823508849330    7.73975943788587   16.53681522665222
In       37.31367255553102    9.74485439001424   18.97679497591174
P        37.39160968508008    9.41402892887504   16.57114083100628
