40
 energy: -2.562008505406 gnorm: 0.000555026368 xtb: 6.4.1 (afa7bdf)
In        3.79470881739989    7.11605823296573    5.00946796923591
P         1.77272209874985    6.55434533556042    3.78816077764954
In        3.27259694608430    7.11083733148796    9.14043172316829
In       -0.07042530486704    5.34131285498570    9.19796582156134
P         1.10929596086033    7.05097290815786    7.92092832699979
P         3.58242342427958    4.99242004390151   10.28540205367606
In        3.80220708246864    6.50510247258357   13.99478256979776
P         1.70863541316902    6.84013470135429   12.80931693500962
In        0.71057538291702    8.70842262062693    3.45919566750025
In        3.80230625821995   10.72006235655096    4.95871573438692
In        4.25560111377767   14.32659749782044    5.03735268430166
In        1.39819202611384   12.85905040402202    3.05237977028608
P         2.25114533867763   10.56197432658935    3.04512509818261
P         3.45947229234798   14.09435807935545    2.74426711987328
P         2.83888795278492   12.64684362500564    6.19467655940852
P         2.65185986636320    8.91377213630354    6.24384389680447
In       -0.21412352200990    9.03955292888628    8.58870049452864
In        3.04772544055335   10.76321244393630    9.25707998377800
In        3.10272776628255   14.47907960803321    9.40162411350142
In       -0.03285029245079   12.78558967912965    8.72517216719843
P         1.14993631491046   10.87786997953825    7.63814379480793
P         1.31833106293619   14.58506232569070    7.66569377501318
P         2.44690342892713   12.57046913590966   10.85569792254982
P         2.52497455244664    8.83925210444901   10.73838851703513
In        0.69060902344073    8.68283310833641   14.05048058993264
In        3.83347042453560   10.49469015565856   13.62880058073581
In        3.93505443106083   14.41919719930216   13.69560328914604
In        0.71001517861371   12.49665256554091   14.15621138758535
P         1.51046669116022   10.62348199839415   12.72719698039527
P         1.60003347783411   14.42066619789678   12.84624958778883
P         4.22659945714129   12.43942124806616   15.06033305396012
P         4.21569188952601    8.60033265977227   15.12627807693534
In        1.51267044699189   16.83434855584613    4.37846268952223
P         3.16694930684263   16.29694776556001    6.04638366819328
In        0.06664480832896   16.49327008035089    8.63415832544430
In        3.44552762705452   18.09504340776898    9.47122634707120
P         1.49865661560840   18.37632554612985    8.05040546204930
P         2.64710390578902   16.34373137209217   10.97677165250614
In        0.82543916871149   16.28954248312826   14.28372428713168
P         1.78218812643162   18.34760252332972   13.47640054533268
