      57
 i =       32, E =     -2215.0434509589
  P        32.6397179039       27.4659639214       31.3734862038
 In        30.1343109233       25.5365487161       31.8817634236
  P        29.2262115753       28.0827944513       33.3930073016
 In        30.1684673680       30.5130035048       26.6543105834
 In        29.7958209463       28.6248641661       29.6330660125
 In        26.3938318815       29.6110866678       30.5377791722
  P        28.2903539269       27.5261495163       31.4607449997
  P        28.3522556342       30.7982440197       28.7952643143
  P        31.9713027116       29.5014081545       30.9838738758
  P        31.2039368919       28.0647366583       27.5430929313
 In        27.1844159361       29.3377693391       35.0369160493
 In        30.1900808531       30.5578574644       33.3991420859
 In        29.5684926171       26.9206924650       36.1413898100
 In        28.8616706362       30.4350228370       37.5783567479
  P        31.4488417277       29.1487882518       36.6371271034
  P        28.6222942024       32.0129147909       35.1296529429
  P        31.5737046944       30.8612636989       38.0184492630
  P        32.4125029646       29.7496729415       34.7242118006
 In        27.3182850475       33.4073497112       28.6250657963
 In        30.0764579622       34.6231784071       27.4754149118
 In        29.7321774267       31.9134500899       30.6860259575
 In        30.8784693917       35.3365553840       30.6706538570
  P        28.4215810514       34.3464512367       31.2921662117
  P        31.1209435649       36.8311363945       28.5244884575
  P        32.0959543599       37.0004558471       32.2080732825
  P        32.0553420244       33.1015702589       30.0311719109
 In        27.2507245219       31.9849727420       32.6490493721
 In        29.4710624245       34.2628744273       33.7678364123
 In        31.1262108306       32.7751283948       36.3252451770
 In        28.4322230904       35.0042578843       37.1304219310
  P        31.3015821087       35.1452887172       37.4258353352
  P        28.5227145435       36.4582747609       34.7267263024
  P        32.4232504336       36.5935187178       36.2396605745
  P        31.9279168674       33.2457287118       33.8965450947
 In        30.1911496693       38.6993043528       30.3104924904
 In        28.1905903934       36.9939244838       32.0797542959
 In        30.7425089690       37.8221117250       34.5618749363
  P        35.4483458587       29.0490820619       28.7287765911
  P        35.5774150507       31.8633381563       32.2173110231
 In        33.2770324412       26.3939525884       28.6338472840
 In        37.4660365822       30.1945282647       30.5256124575
 In        35.1667766003       28.2566961416       31.2528514590
 In        32.9634432379       29.7532457323       28.4706602292
 In        31.9716348885       27.1822817164       33.9408948928
 In        35.5128377420       29.5923280103       34.0072569268
 In        33.7181907798       27.4234336465       36.4667415167
 In        34.2464937655       30.6384608163       36.8324637226
 In        32.4903282036       32.5805890356       27.3665149154
 In        33.5638969351       35.3440231977       28.2956664630
 In        35.3042741405       31.9143199384       28.8907200420
 In        34.8403187926       34.4827244954       31.3312002793
 In        33.0329613852       31.6915684812       32.0328508893
 In        34.9906919677       33.0370115054       34.7188774893
 In        34.0584088891       35.1788005532       37.9920821502
 In        33.3700238752       35.5103969290       34.0165680220
 In        33.5751388372       38.0615457586       30.0601439701
 In        32.0666443428       39.8666054747       32.6185988846
