32
 energy: -1.720627078425 gnorm: 0.000404459742 xtb: 6.4.1 (afa7bdf)
In        0.21306802991925    0.29805905129555   12.28554820206065
In        3.95302210411080    3.08661163948888   11.42984227432290
In        3.79939880802390    0.24445860591918   15.00890443604651
In        1.96201990890046    4.22409580417513   14.41144659325645
P         2.36294337297548    2.12449018846765   15.53821305516442
P         3.31893631163271    5.11635027821807   12.61428307153267
P         5.27901202044739    5.22378580685841   15.93312295364806
P         4.76671158574036    1.36675420537688   13.02259321159455
In        0.46087661457907   -1.01441514016640   17.77230320378583
In        3.73257448286436    1.72126708517897   18.71415955973358
In        3.48211170135746   -0.02530469867266   21.77612395963476
In        1.28869873778288    3.61814695474057   20.33732269846024
P         1.59514555243821    1.43075304953525   21.33585902518079
P         3.00638051406430    4.06985604240881   18.67065144044762
P         4.47137400372244    3.63128351288551   22.57285601764686
P         5.32455704668377    0.49170161241179   20.19997334165416
In        5.19631549843474   -0.52446302533741   11.52593390477320
In        7.62823104898041    2.68894348226822   11.14531552534668
In        7.75206289682103    0.46363918248008   14.66267322141566
In        5.59115090749615    3.31098066903026   14.40350942928043
P         6.79339412709485    2.08520645172009   16.21911119984200
P         6.76802544612103    4.45645252769913   12.55636855546415
P         9.89339831949362    4.27171132653753   14.92706774374601
P         8.64120873242833    0.92757922363390   12.46037151812785
In        5.75265584808626   -1.58217887694435   18.96507506437019
In        8.45249824752287    3.58590385005357   18.77323781414325
In        8.94912601430931    0.40991207933227   20.79398548883033
In        6.10984237616043    2.75094289565031   20.97999258249826
P         8.37888454229816    2.47446449192774   21.94042067428552
P         6.00533492383341    3.93340489441079   18.78456544087437
P         7.81055404752439    5.46363644107705   23.50971445926336
P         8.04892622828779    1.15673038833200   18.65201433336008
