82
 energy: -5.707518988043 gnorm: 0.000705930128 xtb: 6.4.1 (afa7bdf)
In        4.19790382020603   10.18224917707293    2.99695890291777
P         2.90894846794640   10.90995145580208    4.90773677877762
P         6.35230615986265   12.09379340988677    6.32504995396624
P         6.58677239865485    9.64904301215014    2.72822320235723
In        2.43620954598489   13.87946997912135    2.73895716271300
In        3.99880822558636   12.79041266569856    6.07306568473543
P         3.00173159037833   13.31421895914308    8.25098011005116
P         1.28683338347000   14.37139960806769    4.82362005978785
P         4.68737351298809   16.21377141063554    7.05046554650783
P         4.58849755209654   14.00673799429925    3.94783204321631
In        2.65416162882683   19.14161364341076    2.68869466646440
In        2.73819459334751   16.20897086585363    5.56562897490867
P         4.17188285947586   20.04655499801680    6.04173071299890
P         3.78207715147167   17.11023284608628    3.49141828163305
P         6.68532786677632    6.38495473649974    3.19461850724642
P        10.40974570151134    5.61456962421426    4.53548257015896
In        6.72067963081320    7.73606347079255    1.17310881457174
In        9.27250636091921   10.98308908945410    1.03896387329434
In        8.70831494936083    7.35124689170760    4.24596280854535
In        7.60942238358244   10.69290494849284    4.73815668021849
P         8.45022291327806    8.85925232110733    6.19040503356131
P         8.58407421471327   12.28256784707668    3.03102888737855
P        10.17223280203899   11.80352560846893    6.29934483284802
P         9.51009078720782    9.03454655366391    2.56041526558179
In        6.31456434881587   13.09345505291722    2.41123117060800
In        8.99496603593120   15.23013948114825    1.48788177918417
In        9.46274615226806   13.71664049379959    4.89116012836449
In        6.19863636191266   15.37622964696046    5.28346566541467
P         8.11345378697876   14.72504287698933    6.70501782346514
P         7.42230589804413   16.08593289406236    3.20748427086330
P        10.65418642619576   16.73765598292171    6.45753767790002
P        10.84366753034114   14.72389926862014    3.05711822897853
In        5.41546732221254   16.38039060560006    1.77961916410959
In        8.62024391071938   18.61386846327227    1.42422072018970
In        9.03421686849002   17.32812777527891    4.67428613691308
In        5.52300957889207   18.46718091236399    4.74575761548591
P         7.42980250373593   18.26561802553774    6.31068721342260
P         6.87634134297314   19.48543918809005    2.91840135871750
P        10.24359082530199   20.52566847929463    5.50529710891986
P        10.58758106014065   17.97309966390280    2.80878197184890
In        8.27162221837099   21.03668283412589    4.20452179585241
P        13.52802614069598    7.27109624166239    3.61789380574877
In       11.77025922108593    8.05374002338333    2.12924758643950
In       14.55836684704557   10.00997368039088    1.97592711394632
In       14.15961193849949    8.68766070641512    5.52226189637397
In       10.73402559347030   10.32041209804174    4.38638921910722
P        11.74792539951800    8.74483612957669    5.97375453310706
P        12.61763808011981   11.17517015335289    2.98945887504567
P        15.49260146041291   11.81646136187609    6.89932297577560
P        15.93232291269212    9.58440186647028    4.00192138694513
In       12.32639787609225   13.27551168344528    1.72586507686908
In       15.53152524087995   15.03365615865700    2.43557410616898
In       13.97397316794273   12.01590988714353    4.94611708671297
In       12.24886255078641   15.80554985330162    4.81427593670826
P        12.72934019096209   13.78546223214960    6.13926643255072
P        13.86356888309738   16.73396858057620    3.13029522194756
P        15.53682064989151   15.36664505181419    5.95453233956996
P        15.77717308276419   12.72693564348701    3.35101551079977
In       12.38290799835099   17.31340540373123    1.24063862652526
In       15.59523388093221   19.49193984632310    1.72607623925512
In       15.21712381173927   17.63919042335097    5.04553771230158
In       12.01402616003981   19.08015141115204    4.57389461439367
P        13.44128561990672   18.52024884023000    6.52207273798961
P        13.64345172652989   20.23381794099456    3.04926187803960
P        16.34293323819294   20.26573203281538    6.81395316267393
P        16.98257272273727   18.67252929303582    3.59874927113884
In       11.95564353684180   21.41914001942976    1.73132454443671
In       14.97044113532258   21.07500548003352    4.97164132447081
In       17.53233761710282    7.85279710570888    3.30739965420872
In       17.36918424138383   10.76622742762978    5.68540885529606
P        18.34248028224802    9.01365937778903    7.08597051664247
P        19.15909222904994   11.50882975873783    4.09900865634125
In       17.63620759608916   11.60852380864740    2.15483350202495
In       20.50818684195000   13.90395324379131    1.56632971943053
In       20.43705199273209   12.36083225558552    6.02898460344672
In       17.26945409740993   13.86913976278098    5.04665761624035
P        18.61548849541030   13.56912172129846    7.11265024361686
P        18.95880779360049   14.59372554174638    3.34278784511552
In       18.44470752329585   16.92247553531037    2.63164018404158
In       20.27563604296693   15.66646071227280    5.18276608127854
In       18.21030372611047   19.11275596278843    5.72401320313244
P        18.49351928223265   16.77990048141156    6.42410091961796
