84
 energy: -6.182588255111 gnorm: 0.000890024260 xtb: 6.4.1 (afa7bdf)
In       14.99955147477945   11.01277904785911    0.78216867911343
P        14.60880229014141   12.45855938054948    2.72627996934881
P        17.39788327251421   11.16769306748900    0.32232221421562
In       16.76603052542663   17.17790558140069    2.33323185107065
In       16.71852801767442   13.67822459573660    2.23420687062440
In       15.28895016867193   15.99719233171975   -0.75103014579559
P        16.46466656196823   13.92731360699953   -0.21421085510377
P        14.99660343822222   17.91097257644156    0.74927720899362
P        18.37509387778355   16.39511095529550    0.61485403864925
P        16.28726543238868   15.38187138296398    3.98245937326780
In       16.26502659329247   19.78980394683554   -0.17323668938796
In       20.42113269432346   21.21908212183596    2.74237759934557
In       19.82130041213308   18.39010713587870    1.03764943749394
P        18.62068188417491   20.32680534127387    0.09884868532883
P        21.63642114828252   21.09229265507489    0.63042891346064
P        19.80488309504022   18.93784709421260    3.46379908624826
In       17.55578341302076    5.50023408840094    3.49082998483268
P        18.69254836764510    6.59746545547488    1.64851878658843
P        18.28079021622328    6.29095945838765    5.69276786673751
In       17.95511333219796    8.86783453559470    1.05656781252445
In       19.52804405235023   11.02326372187729    3.10525045854662
In       18.41392552858694    8.68536483310668    5.04147722924115
In       15.77405616984858   11.01687279581871    4.35740102818306
P        16.76388557255568    9.05570837926845    3.21834246562001
P        18.02070218379612   11.90893339000934    4.87734909108020
P        21.01474250773206   12.85575347982161    3.97171146750588
P        20.26896279887912    8.60188127548457    3.36102231742442
In       17.93336351769816   14.30545728335618    5.50009813246449
In       24.56072562475063   16.66083943504661    2.91710385635774
In       21.35344118760390   14.95955043946569    5.26308700239138
In       19.82124934680919   15.35884470125569    2.35643939650942
P        19.26284146274354   16.22906555730335    4.61858933710409
P        22.14443849000917   16.29743928802244    2.37534375093506
P        26.59127703659270   18.11353618150852    2.88158433525547
P        23.79287542128253   15.40910710868131    4.93698333752703
In       21.93312405492087   17.95005163395981    4.23652137364550
In       25.64748990327019   21.98506163981232    1.85947536454080
In       25.69806196690688   19.79279869229016    4.48234939278324
In       23.24781260963593   19.28497619784275    1.07471440267493
P        23.42615988308176   19.78211163442131    3.49199544494535
P        25.63711154581429   19.82472633995278    0.71714771176634
P        26.94114788339433   21.86686516056453    3.94452661920970
In       23.68044734888036    7.21719147819711    3.37914510359965
In       23.17645597690261    3.95157379728909    4.06674752567223
In       20.71728852113180    5.97417545000424    5.34425883430995
P        21.27340749239144    5.16761878339413    3.07214473267729
P        22.62135356659329    7.53817531348082    5.60254593579193
P        22.14249308587709    7.64270963866550    1.48198803747392
P        24.70545495505358    5.11361281521239    2.49515555682957
In       22.01605364927606    9.79118437013989    4.72793496917647
In       25.43678987653210   12.41401664297302   -0.08571480454141
In       22.56166502587039    9.83837694880475    0.40924208148910
In       21.98488651870606   12.83812478615693    1.67402520458880
P        22.99850756674101   10.78474911931813    2.66688613580841
P        24.08644297927524   14.06801062247524    1.16261883606796
P        27.81158046262519   12.45392369755193    0.64379643707526
P        24.98268930825495    9.96719781317604   -0.06617548225146
In       24.70633476417946   13.55184861452028    3.52451215140237
In       30.06844284759585   17.55493823524073    1.82022079371609
In       27.81223285756036   14.70971449420326    1.75725756363383
In       27.58788158080906   16.85818448505472    4.79113947288887
P        26.92814015176366   14.56393922519196    4.07857476350303
P        29.44987678803714   18.36138484128128    4.08382688332147
P        32.03604644898767   18.97280055604819    1.28849816326537
P        30.28167463390000   15.08111133491692    1.70587018397667
In       28.81834184020216   20.53139830215891    3.01701393663499
In       30.90310214073290   20.84336152978726    0.18688470597596
P        28.53109309910738   20.38060991272643    0.56111455162618
In       24.31024258850945    3.40285004013495    0.75739094621654
In       27.47062763326684    7.54996801079192   -1.33855076566988
In       23.70569834153821    6.58871821721468   -0.16826856796091
P        22.27869070358243    4.57458206168415    0.09814946672729
P        26.12789748026043    6.47182751542692    0.44139887069765
P        27.86795000866802    9.85840656291226   -0.60366836070528
In       26.08681295653354    8.62803116859185    1.70072081966000
In       31.26151397627530   11.46646516296173    3.82806217565254
In       29.75520591898178    9.77459157108874    1.01084608873073
In       27.57352541982675   11.51770040209931    2.93486322505703
P        28.23473654131937    9.12728705127251    2.84916373021138
P        29.24071562773317   12.80879639182393    4.25308476062282
P        30.58901860042606   12.05517371640886    1.52670370312590
In       30.37289646701690   15.02722930860654    4.18030874416554
In       32.88909685702694   18.72368558393276    3.56914457790375
P        32.14844148457794   16.66947392508101    4.62527410859037
