70
 energy: -4.086968866911 gnorm: 0.000546147495 xtb: 6.4.1 (afa7bdf)
In        2.93785908827067    5.42416199618123   12.12084964339521
In        3.54652911388345    3.46535097643479   15.34898120910982
In       -0.20082268796282    5.73122980597176   14.89862175920118
P         1.23119333982737    3.99560801104506   15.78956935072875
P         1.24721605057184    6.84857943631330   13.23294291092411
P         4.48120378939193    6.76219144370863   16.60119355480063
P         4.69788724804496    4.72108165727097   13.63002423867374
In       -0.51979721549113   -0.61006192782012   20.60665095337364
In        1.82757793412990    2.86202934174029   19.25116077152785
In        2.80404809136296    1.68569856977808   22.82768373983247
In       -0.65873884641654    3.22120988975961   22.83013686834084
P         1.38386053575252    3.16227336113253   24.14378971987701
P         0.21903995436686    4.09732215580602   20.68024693910180
P         4.30965087603608    5.02229100503898   22.96974021561540
P         3.71516002499846    2.28276177414437   20.66373025524828
In       -0.57886140936471    1.04190520190011   27.06970871354574
In        4.48652357307858    5.69322923444221   26.81619688840235
In        3.59559358773734    2.45525980115858   28.04491286770164
In        2.35217925528043    5.76431300045986   30.52275547440436
P         3.57959807375011    3.71622777133593   30.10648477108173
P         2.55271992549053    6.50690413511275   28.15856780991669
P         5.75415319703053    7.24861568350810   29.99306715547355
P         3.95453257303134    3.49533430639958   25.88149684581818
In       -0.32705422447878    7.43788205623142   11.44954967145747
In        3.01144289627774    9.43525563978602   11.54482067759327
In        2.94134947917409    7.67129078233219   14.90862937202399
In       -0.28701860704577    9.78525739430038   14.58410334431884
P         1.21865574863592    8.86008825866890   16.25600545235279
P         1.59678833991197   10.59594619499733   13.20580694289435
P         5.11171103377705   10.43584594271165   16.64726454181209
P         4.53304089677472    8.48797914967617   13.18525158129018
In       -1.81760345739696    4.23625016967013   19.30858077993507
In        1.10200585830985    6.36806675205249   18.53611712194244
In        2.23476778844273    5.27941023695644   21.65973596632014
In       -1.21940617999706    7.17437590605543   22.05642929548054
P         0.78116124824171    6.50749653358240   23.25929741493105
P        -0.05495248270122    7.96636536739365   20.02755021206370
P         4.26987510116778    8.66888575092955   22.36065881977398
P         3.29270750790756    5.93491904134225   19.50413382244514
In        0.61388032825327    5.43354602327374   27.10863057535038
In        2.63534261960838    8.37668582692952   25.52678468221809
In        3.98819261169250    8.47542759086062   28.82221889939009
In        0.30051406438247    8.75428529798656   29.14186839687877
P         2.29238387844449    9.48796424362607   30.32826163017783
P         0.73182196765067    9.35799470692735   26.78026691737050
P         4.15081813786736   12.22693501471239   28.82048454177171
P         4.76524675393367    9.02546827207187   26.52401197291696
In        1.33866503409931   12.97898026364166   12.70051512934026
In        5.09361301817646   14.13841751657176   13.75978613450729
In        3.34977606343482   10.93449774414889   15.00490538861488
In        2.29776897356223   14.43121075776673   16.41908497067429
P         1.68710078066007   12.08753421557009   16.41117209316002
P         4.68762887929254   14.68192546512672   16.08507831340459
P         4.54694700808198   15.49291119004246   19.44821609624487
P         4.96118161924711   11.75947968272851   13.33683327663914
In       -0.73342006753326   10.17495233218185   19.23240143157379
In        3.33271552563689   11.81036385233525   19.62926603840653
In        2.11514319215320    8.62237599864980   21.16353269942557
In        0.58476584416564   12.27472482087669   22.24797305745439
P         0.79692967448549    9.92597344875813   22.78964866605062
P         2.24517978910442   13.50349888040308   20.98358295008501
P         5.66663848201007   12.26533320691416   22.79407987520619
P         3.35379580585224    9.42824765504815   19.18959335565314
In       -1.05561200191757   10.74187918111229   25.85495137877633
In        2.69852857880543   13.91869365273222   24.95114512080145
In        2.32525017565719   11.19128060211606   27.52274207558717
In       -0.36569693911618   14.00952695418928   28.06175633066304
P         0.67253313827339   12.09500324069701   29.12510746473729
P         0.57179804240127   14.56426837232043   25.90288726913536
P         3.60895450248243   11.72704468034999   25.47026559480662
