202
 energy: -14.221284888368 gnorm: 0.000539720931 xtb: 6.4.1 (afa7bdf)
In        7.16168264767136    7.71105330475659   10.75306328932391
P         8.16806558337973    5.54161200256815   11.22607122146998
In        7.22914330369704    2.38377962677375   17.97097376157348
In        7.49008296110838    6.44746690897738   16.48824424703902
P         6.52115005464086    6.05455884384181   14.29775484697561
P         8.56280922655036    4.37119241328819   17.37522393203489
P         8.10468323892004    0.11968149462835   17.89327524289173
P         8.62392714518278    3.19284148993813   23.49953165999238
In        7.27238083527995   12.03097490265733   10.03383206403773
P         8.36599952158429   14.14818041241677    9.55482191297166
P         8.33789131306238    9.85081607057065   10.43392185571776
In        7.39753774401749   10.68402194620226   15.73469754995922
P         6.48107585931103   10.28638609203176   13.52638294997919
P         8.31420413017288   12.97082878136897   15.76555544708427
P         8.62627457924483    8.67537719380368   16.57044987888167
P         8.23708831321601   11.76062412028168   21.65080131026020
P         8.29695622652237    7.49532880582019   22.41132738960842
In       12.13082750182802    4.27819637036916    5.45521562250869
P        12.51181827622134    2.04349082484886    6.23688215692451
In        8.51028166696984    0.91842733317715    9.47419271164049
In       10.72734887644027    3.08407962089437   11.49498432989377
In       10.80114988943886    7.60195676166488   10.64204065909275
In        9.19129168487799    5.04609363944238    9.04841809691448
P        10.10338546597235    2.72732044814204    9.12243453813692
P        10.22325771297333    7.17681397735071    8.27579279527543
P        11.64708254775554    5.39223686181229   11.42088322864951
P        11.45744382921555    0.84307778390496   12.20709372931510
In        8.76891384567329   -0.51158400437487   15.64216694591455
In       10.84350001868143    1.87478153231532   17.34145829338689
In       10.90651691024375    6.36229813272270   16.41724668951026
In        9.09723450552480    3.76192913711708   15.02220722387733
P        10.09197324685334    1.47035592804261   15.00983134272911
P         9.99852233778524    5.91987277583018   14.15827703197848
P        11.75106293481768    4.19217050309762   17.29206988690298
P        11.63256859932124   -0.33310046897731   18.07851200878761
In        8.96619878295846   -1.50748805331716   21.36694752240973
In       11.40163447858244    0.76741932637935   23.12817004616033
In       11.25128777873199    5.23426207360282   22.36926782446041
In        9.28827038978814    2.78605568292626   21.20581468775647
P        10.25776313784581    0.50851323097373   20.93302683634018
P        10.22786769393431    4.84032443472080   20.13477881315766
P        12.29021036164204    3.08595727825334   23.06603914305460
P        12.33281430122266   -1.48004753486929   23.46217633702220
P        10.82620588937906    8.18706960015168   25.31862572818331
In       12.24182378319282    8.92726373806188    4.61550681793062
P        12.74362697830038   11.27164726009120    4.58231601989947
P        12.51217848154439    6.66988148728965    5.45211618330865
In        9.35068511368686    9.50956497395210    8.19222926385321
In       10.93426274306492   12.12187252239443    9.81423145023403
In       11.00346888166352   16.72020451290578    9.29268681299950
In        9.48793077674502   13.98285405223932    7.37619469579161
P        10.37066811895091   11.65809480430683    7.45232816575978
P        10.47489361444323   16.20076921786618    6.97723972642030
P        11.82472337976721   14.44065537423422    9.73749336675993
P        11.75154135306549    9.90420749621181   10.59467521406372
In        9.19883286117008    8.27861645586986   14.18078198941631
In       10.90087578410583   10.89295421777675   15.58553474091171
In       10.88431637803404   15.46403911893400   14.72663664242351
In        9.08946043364907   12.77806180274109   13.44407343878849
P        10.00859861662298   10.46805278876714   13.31502831410635
P         9.97392486700986   14.88923298416086   12.53336780129844
P        11.65842217410126   13.26149565364004   15.53426668160161
P        11.76758685534413    8.70288626098509   16.40661412860757
In        9.23888727671024    7.13348488314976   20.21341637918609
In       11.11211434783053    9.78002837077368   21.50232528453613
In       10.97760998158948   14.25098585230861   20.61367773259525
In        9.10622454532243   11.52158371014254   19.40239512169452
P        10.15254102219854    9.25846900966861   19.26621284578932
P         9.91210205670212   13.66688286780700   18.49584140308327
P        11.96213881353824   12.11076856994151   21.34038273557141
P        12.02483513077955    7.58922013486020   22.23199092601647
In       16.44371176074221    3.99208601907858    5.42291786080605
In       16.28710631849973    8.62452554215404    4.75530625598989
P        16.18063177154688    6.36958633092744    5.63491585172177
In       12.39754690414998    0.39390452388862    9.99782398429408
In       14.11223802079621    2.92050570378641   11.58177687635864
In       14.16108046743575    7.51858283805663   10.70444927938137
In       12.59298313140708    4.92763141798786    9.17635382708937
P        13.36043896619309    2.55016301384275    9.25127878724003
P        13.47796292718706    7.11862342135638    8.35799069684095
P        14.95060258932375    5.26851329147803   11.43106353739749
P        14.92369247179150    0.69121442350560   12.26368879554816
In       12.50396945576977   -0.90936704097571   15.87439328101801
In       14.27007318997573    1.70821485679234   17.28482995253253
In       14.19933831782087    6.30406222529070   16.37730337220951
In       12.51522779473904    3.67265718387570   14.98950413458185
P        13.26395069007511    1.29734500071640   15.05764856538694
P        13.27483211272651    5.88229697777553   14.11678922215703
P        15.03028268461262    4.08638906437088   17.16285808373715
P        15.14233695755534   -0.47608659090957   18.02645527409691
In       13.01761434952914   -1.97096320221043   21.19302433432546
In       14.87594955806664    0.91617593159486   22.86743691432461
In       14.69174177441503    5.22394866811723   21.99989447412770
In       12.70386181869133    2.63063051423045   20.66925507218138
P        13.69532971945946    0.35465056981395   20.76164940736659
P        13.56495528924460    4.81448496312048   19.83601257494299
P        15.88406696072902    3.21176803523343   22.87904279704754
P        15.81825461945577   -1.27289969009637   23.50874923204737
In       14.41756877296415    1.70216454000789   26.64475288906497
P        14.48011563284325   -0.68171427715189   26.42442647644822
P        15.21957760348278    3.82715619050542   25.80551587165760
In       16.33398950683646   13.32616862253304    4.09014657148250
P        16.45800249563683   15.70632369582738    4.34443809555779
P        16.53773582314684   11.03268393146681    4.84275729523864
In       12.73603593399771    9.50438677135181    8.35363276456339
In       14.33241021053222   12.11666433916234    9.94111531495332
In       14.82723681476792   16.77331454837890    9.50184708459568
In       12.93970363866020   14.06631052725879    7.55263395236707
P        13.67842369485969   11.68780434933935    7.59488973986769
P        14.04520321783804   16.24536455745125    7.26602003855808
P        15.32228199087152   14.39982966409140    9.94515873066430
P        15.06563702328677    9.84422323347628   10.66394641018738
In       12.53150782388424    8.26281793867274   14.08828371116345
In       14.27439800170078   10.89450423042583   15.53170040786497
In       14.40321451056981   15.50212149480979   14.77112408751656
In       12.57030419352062   12.84076829484131   13.27020179270652
P        13.34990543735208   10.47047288004867   13.27576212637883
P        13.45558660693278   15.03091524717517   12.57492342804020
P        15.06673959893941   13.25252680767947   15.53101419924173
P        15.02427017452232    8.65886345548090   16.34449472955061
In       12.61578508245533    7.12219024774191   19.87877318411487
In       14.45437263377308    9.81334671005484   21.28215809090774
In       14.52350763185654   14.42023376491467   20.28671620538809
In       12.55967929756679   11.67431570075646   18.97829020130505
P        13.43181934354962    9.33473540647401   19.06975998069235
P        13.38277263390587   13.87148796605147   18.20430445452500
P        15.20008535325549   12.15922500337921   20.98047981893602
P        15.37289768124645    7.63025024750177   22.05288279637350
In       14.46355204461119    6.11628780990369   25.52524288532822
In       14.23593498371221    9.47774783649806   27.01710744437444
P        14.67188688265929    8.45987600022747   24.87107431726732
In       20.28684299733246    7.07198047201429    5.47355472001369
In       15.90972941754561    0.24265364344441   10.07902453114136
In       17.50388247537702    2.93693352909746   11.59254406065702
In       17.47940414843163    7.48071370436224   10.91163017256879
In       15.95092507453726    4.84824198887916    9.20534407833657
P        16.63070494646272    2.46808786399065    9.31949591232564
P        16.92407192530269    7.03365145359073    8.54188152892004
P        18.44105077518101    5.25843235496456   11.54015633797696
P        19.02168491041574    1.03934360528144   11.74026619013474
In       16.06530017880473   -1.06228988598460   15.84665133016865
In       17.65430064205368    1.68522786782621   17.15805590506150
In       17.45616675718990    6.23498104982719   16.21907048415426
In       15.85665232954294    3.55657509420720   14.88905406741916
P        16.59305351931243    1.18521809531335   14.97886608373714
P        16.50814786599756    5.78861491893607   13.97875287809682
P        18.38597771517463    4.04425608289047   16.92580332240293
P        18.79984950895269   -0.33448248741737   17.96414849146562
In       16.86644047212852   -1.81721873876296   21.39266208363531
In       18.69234599439381    1.32484668025467   22.31137589491656
In       18.14735862774024    5.71273019076954   21.68820967439027
In       16.28036867622184    2.73028717468373   20.47820017366761
P        17.24238030709822    0.44009975474644   20.49904226146189
P        16.94716802201770    4.96756555954566   19.64160774580861
P        19.48043450937791    3.62069954863036   21.82074878721874
P        18.02033137435780    1.17464837772076   24.63526046174573
In       18.74051601676214    5.83280997487314   25.56227225701330
P        18.10571814061410    7.98622532496507   24.70773345357493
In       16.10168259751138    9.37708207189704    8.45996718794937
In       17.65770455709658   11.90809253742382   10.20224953925059
In       18.61741500080998   16.35357155995600    9.56985830589834
In       16.46814385324962   13.94075998227209    7.79703331435612
P        17.12584343937876   11.54404487462122    7.81033790086707
P        17.68716349475310   16.03336751347812    7.35281254025442
P        19.03397112286030   13.96408120289840    9.95168916581648
P        18.62239150047163    9.70821674158616   10.89566929261420
In       15.85691991895277    8.19571424601813   14.06502705172821
In       17.74685344187895   10.76386066274816   15.49095102755083
In       18.18896735833312   15.38341051218966   14.77915545211897
In       16.06455744360372   12.79012880078144   13.31727393187880
P        16.72245334648032   10.38652854982342   13.26807383196690
P        17.06549047792324   14.94045793695548   12.66698622123553
P        18.66611833280082   13.06822315124605   15.47508966689071
P        18.44812106682573    8.50889734336193   16.25544917841509
In       15.90804638261470    7.22100732008930   19.66073640294465
In       18.00366371945749    9.84000149896079   21.06486295888324
In       18.38831680124803   13.88514080646405   20.28590730363167
In       15.91213411562233   11.56913393642727   18.68979105937787
P        16.96126178896730    9.32460595509437   18.88291670477508
P        17.15370596603001   13.64060254763747   18.20640839518597
P        19.21198778507337   11.95966378128274   21.59458772854169
P        19.33613041248605    7.90383265431922   21.87308666194279
In       18.05560221300572   10.41868081143184   24.70849401083807
In       15.08805402692915   12.88501964499079   24.93904657278104
P        17.02884528215971   12.34968582514576   23.61187903056365
In       19.99253452127745    4.90333877667373    9.68970426563831
In       19.96153419526046   -0.76669139446205   15.87557752317321
In       22.02346440562822    6.01122281133708   15.65669465679206
In       19.31510661240714    3.57910968717353   14.67478821268047
P        20.48745538413267    1.46666573688744   15.09486277653343
P        20.35494825673802    5.71361291673792   13.91299897238052
In       20.65011774576889    4.22617164069451   19.75415956076378
P        19.70861136495899    6.15197215091529   18.55686928444612
In       20.19488827619827    9.25856931379117    9.09240270927940
In       20.38382954304711   13.30861748655300    8.03860035617186
In       19.30404936023025    7.97451747386877   13.98548462305574
In       21.98559852255581   10.31919249074770   15.22724265103170
In       19.65789775704460   12.45298651420686   13.29649670937634
P        20.43816485204176   10.10312316855269   13.35965054645921
In       20.57263411796180    8.12353746620433   19.74319621983137
In       21.13596404073089   11.56387508674921   20.09717049414487
P        20.04848315281955   10.15281555078337   18.42941289779537
