388
 energy: -28.724103774166 gnorm: 0.000072285841 xtb: 6.4.1 (afa7bdf)
P        15.20190512671856   12.04178601294556    1.02610474234154
P        16.00896551154068   12.74663915392132    4.94274263955438
P        16.80235616344525   13.33645661296522    9.75000868762991
In       15.75623311751304   17.38799025094702    2.43414781318228
P        17.38953088511190   19.21220171380829    2.65351967127790
P        15.65985689232355   15.01336259641870    1.91249960496321
In       16.82126256240339   17.78465888631965    6.47446298961171
In       15.17994494761383   14.66635335004145    6.21715957235523
P        14.62920741652774   18.66174532528264    5.90351637424499
P        18.92099452644679   18.24561771969822    5.17752190546538
P        16.76734583719679   15.69358417146406    7.83655985435796
In       16.95507348784318   17.41412745366387   10.93632719473478
In       15.43038219292277   14.41400228241786   11.48832848397138
P        14.87709346190563   17.50502352992677    9.66485469387037
P        19.31370253663791   17.75365402294941   10.15759766807105
P        16.75587710647959   15.94514873717522   12.93777249694992
In       15.96360343150969   16.60663258773853   15.96699620239971
In       14.32123943724208   13.09692079879108   15.31120033046308
P        17.57908645617461   18.14610533357012   14.89351376533528
P        16.46167943930617   14.17619998862478   15.78461602073649
In       17.92619595426112   21.59842513879464    2.74460339385406
P        26.63702189329003   23.72761392766814    3.58267987624283
P        19.96920440955691   22.38166336505816    3.79297792457619
In       20.28940543050237   23.68098845148073    7.68262993848700
In       18.88368233502895   20.37798696825753    6.54264410590280
P        16.74982105334137   21.52328492423976    6.70944036478618
P        21.97883342746643   22.67104992242065    6.22290876637042
P        20.09385902391323   21.35317278010686    8.50548790505083
In       20.08188527010936   22.87696184773811   12.39516783195794
In       18.79758839791444   20.03254805054681   11.09022489333225
P        16.62026712940083   20.98973811789952   10.59077297521256
P        21.90040927516774   22.22046352209556   10.87022669271310
P        19.46549564825554   20.66877254421611   13.39561296733287
In       20.48783657080916   22.99023428391611   16.37582807787990
In       18.02864766779043   19.95797070341501   16.51549224230986
P        20.41488850890980   20.54866987362401   16.21787227595225
P        19.16805948972978    6.44809485997830    4.48853888906643
In       16.91309617552402    5.13638034204112    7.39872088122914
P        18.24577904559105    6.79653459804125    8.57921761639149
In       17.95870909543791    4.42260272345565   11.44909825716259
P        19.05172821477147    6.04954494642330   12.88004332483136
P        20.31764590116603    7.83954974019684   15.10613278821407
In       20.80668960542474   11.68200805021499    1.87495655742957
In       18.29903281292226    8.05761998229396    2.84767969553338
In       17.40314719926048   11.08054852467114    1.42171368689287
P        17.13193835893671   10.07695944569380    3.67119229281277
P        18.74571932346862   12.50926390573457    2.98268991884200
P        22.00045158904516   12.89781702098444    3.70867981573317
P        20.28273475002375    9.25552033375255    1.98699987471074
In       14.62477194976449    8.02545828622255    6.04558943160817
In       20.31962614336857   11.37999599171157    6.16791539686733
In       19.18275402313983    8.61060693760608    7.13863823443251
In       16.34429402824441   11.31135554422130    6.91317935445697
P        16.85771800685806    8.95153905854016    6.31561323565035
P        18.53096086028174   12.12461356450665    7.75987971243871
P        21.54144687504388   11.85165228616546    8.29692152389855
P        21.22454317144029    9.07412117470581    5.73662064693735
In       15.55906833432694    8.02445584822756   10.82865260971711
In       20.38051992619100   11.55973289634341   11.40103877841081
In       19.31039882995399    8.19614052951487   11.63279240757881
In       16.96753696710802   11.39762056064917   11.29954641066848
P        17.57429203685441    9.25248505218941   10.18110715093059
P        18.56603174122890   12.21159702728377   13.00937670440791
P        22.81845542655977   11.90210719866451   10.90152995586430
P        20.42054925341471    9.81716262061390   13.19243430191113
In       20.10085763012441   11.23432238137245   17.35171690588494
In       18.22215846701531    9.02135261019786   15.78386411835396
In       16.75923269233429   11.22834445045467   18.05753202925010
P        17.46953973123607   11.40613183796600   15.70866063611140
P        18.68108408681383   12.49190243460459   18.95476019074004
P        21.20828656317677   11.91487114267524   15.19863473589723
P        19.30870720510283    8.96622442096833   18.01726286130817
In       18.01995440027365   14.39321040591929    1.52614562001049
In       23.14549888687905   17.57800044244648    1.78802181280891
In       21.05505229929416   15.05515826852500    2.92673734570827
In       19.37588209191863   17.94295878125081    1.84279720731377
P        18.75270493844823   16.00076208025349    3.28006888814319
P        21.32472213638514   18.18315467082138    3.38155329977355
P        24.92850640694268   16.79153824142118    3.34218673913529
P        22.53090058995313   15.32444968785491    0.94880135448087
In       18.48462975742901   14.33737751443318    6.60528988471724
In       23.84256475504414   17.24620560947697    6.85022899843818
In       21.85208101054818   14.24638971546421    7.55919543427989
In       20.24715686135082   17.12014892194270    6.96940041803162
P        19.79377665380457   15.23359716581775    8.55036191280256
P        22.07788603571060   17.53809055456998    8.59091145106987
P        25.87894775702831   16.82148231607012    8.25344943217178
P        23.06847507528515   15.21683337505720    5.60668839865657
In       18.71240702898861   14.55235336174950   12.18736653689011
In       23.83470306063405   17.66763578019190   11.60472844342122
In       22.44362602305689   14.34019233429315   11.38761100111198
In       20.64941992585346   17.08683170297225   12.18112344387004
P        20.95501760511071   14.83719018409031   13.30878403197256
P        22.50623537240334   17.79095947708609   13.73633246522893
P        25.56097715751131   16.97578606274840   13.27969900769040
P        24.13457200025749   15.66763031941246   10.13812022970442
In       18.03524456914622   14.51787958594661   17.69661865638200
In       22.91369495745453   17.02783839451951   16.92976959834235
In       21.66890015432914   14.01907686439260   16.51413389909633
In       19.73183001327309   17.22883396071810   15.74996562082144
P        19.43334592627773   14.76243045731029   15.66218902247671
P        20.72614048570036   17.50072197505678   18.00029969726789
P        24.36378078408451   19.01607105835911   16.59593365367672
P        23.43358034070670   15.25184320246170   15.21039654350870
In       21.62775026106914   20.64742516840339    3.24707710076518
In       27.39706925376904   20.50286675780354    1.64387449050913
In       25.29812790144637   19.16021646180708    4.06307935735719
In       24.69172078348970   22.40065835409500    2.98618962935090
P        23.64237878048236   20.90341504164189    4.69261116734612
P        25.01188120354934   20.83507672856931    1.12906532709318
P        29.76178458809342   20.66790700327996    0.97901302198293
P        27.41282197588925   20.45854444821357    4.12160709477402
In       22.07148141231735   19.94894205955089    7.97551143848844
In       27.49678313304862   22.29021145331485    8.14959683950045
In       25.78583523977261   19.32917864048525    8.57590080586316
In       23.84565650658321   22.78271447359779    7.88396993308611
P        23.93164711693940   20.79536789254588    9.39383284266753
P        25.68254433247945   21.79310863557445    6.54363848605160
P        29.21883384820386   21.85931742136817    6.42855256510378
P        27.66339018473023   20.42539823420173    9.81068223785149
In       21.88891605191793   20.12286556967438   13.16868720193665
In       27.64024945723233   22.27531000989837   12.98364764567702
In       25.82095998679978   19.48246091757116   13.61550969527924
In       23.74603883082747   22.82217506834086   12.44784454159944
P        23.95637427741162   21.06875094533001   14.19292683243982
P        25.76818847931366   21.80388611061403   11.40707369375532
P        29.55518237607724   21.63004699852799   11.50947388867593
P        27.88740865367166   20.46810581840588   14.69788010440645
In       21.15653733876553   19.89283321161738   18.49151839330114
In       27.74977133274641   21.89398068206497   17.97037704209782
In       24.82921101624618   19.58078974877916   18.97222145396752
In       24.14263433928513   22.77629319995561   17.65448957718783
P        23.05165441203214   21.28478855967867   19.26002335544393
P        25.89908486909505   21.67861724951012   16.33347406305146
P        29.77298601864363   21.78452372086306   16.54755106461082
P        27.09006781355609   20.27468422649509   19.71125689530486
In       24.13389319873652    4.90915264935492    3.33111843405605
In       20.73042927255939    5.07599795152385    3.16970327954251
P        20.93606704718857    2.71698142973745    3.74937581974191
P        22.46242296269559    6.40915250691496    4.39402308377103
P        25.12130583633898    6.33704496522763    1.56214440770047
P        23.78792852673092    2.64113644854904    2.44209633613659
In       23.94329492629429    5.52064794520526    7.57900283715092
In       21.45760950658208    2.41411242426460    7.77544217067457
In       20.45823070415773    5.68231304619675    8.53343307642406
P        20.57071954476287    4.30591058212656    6.50404706897146
P        22.57492733659563    6.74594913087824    9.24846773634175
P        26.31017408112738    6.15562563317047    8.01406354107591
P        23.77367545249031    3.13101300562125    8.25682439859202
In       25.05616509116896    5.94102804467374   13.04641757020354
In       22.80804205014642    2.27012371987677   12.17525464804084
In       21.42106304068419    5.30192210467070   12.72621178365176
P        22.59372985076073    4.29929345008714   10.78520429245836
P        22.91765538492212    6.80550844474311   14.00593907612759
P        27.14320999830868    7.30117017307807   13.35486715549184
P        24.76213186276010    3.48381422679409   13.11168583776104
In       23.58153049215377    5.42982978383660   18.40945829493719
In       22.33429603815584    2.74285090210024   16.17947897753951
In       20.17116192292290    5.99357605569061   16.72573872005661
P        21.22126339170645    5.94630651800735   18.93837834246433
P        25.12907802113950    7.26574674147300   19.00515392765211
P        23.88806561333260    4.61742807024113   16.07501724932466
In       22.35996471854007    7.97570691431412    2.45015678993714
In       27.35788476031617   11.93623624060241    2.33871768405476
In       25.77380343543655    8.49069608727550    2.62862585324665
In       23.85813205980281   11.37335316415550    3.00615152745140
P        23.84755529613028    9.11851263948423    4.08637859230138
P        25.50852383822982   13.18750118775023    3.41973226328702
P        29.02075372722488   13.78367701068826    2.24771011728874
P        26.39993485180538   10.16578077179121    0.90245650909846
In       22.57745653686857    8.77395620386218    7.81433582463707
In       27.16556836642251   11.84605109811725    7.51503559342101
In       26.01735004025152    8.60373677575284    7.66716907447003
In       23.88732730941556   11.75167260118736    7.45024960888462
P        24.43024690949979    9.92842869774949    9.06627559289705
P        25.47869268149670   13.40131833175716    8.47602071602294
P        28.95406384879822   13.53865102235507    7.99874459917920
P        26.12464401704804   10.32961690527178    5.85170053227336
In       22.53832512860000    8.71934697270646   12.41149856385885
In       27.33845356770755   12.01870739349244   13.08855226631585
In       25.94209981541396    8.88910274599159   11.82299757190315
In       23.92259849721342   11.78242762023163   13.11135149077430
P        24.51439882187871    9.44192625442699   13.79240076979593
P        25.51131097031978   13.58049355899286   13.79726224693431
P        29.36544002398432   13.38851694582994   13.55131441007801
P        26.31974568712821   11.20708587286170   10.95198373607816
In       21.67121705866144    8.35770318350674   18.54865336214279
In       26.65772478850048   11.32955941554901   17.23931079805928
In       25.32611872569683    7.90286445642940   16.63058495487880
In       23.28990407096239   11.22781791131576   16.43801291901699
P        22.99761686368919    8.75907488528658   16.49631456177033
P        24.69638187278280   12.74628502958367   17.80290682146862
P        28.68966000855011   12.62847695988243   16.64681980521896
P        26.90487807701185    9.50280979535424   15.54376883662867
In       24.78782848634916   14.32650589042558    1.31294921329069
In       31.17138318586112   17.32050270914251    1.66592177920417
In       29.08210809543951   15.04699355495712    0.11333434084563
In       26.96588880789814   17.04174674477867    1.88631250035986
P        26.61605856546093   15.42830900407467    0.03611962156949
P        29.17394803360197   16.85065520292817    3.07102428376902
P        32.53874214139282   17.94989334880385    3.65032952908449
P        31.56110296123385   15.38746364729061    0.15878416505167
In       25.37114573253476   14.50131870429314    6.25321977569648
In       31.45325257348139   16.82428934510107    6.65831199506601
In       29.21294051649150   14.55226612660391    5.74442018758682
In       27.60718707117426   17.31771434597907    6.49588262945712
P        27.12499867666114   15.53031338148041    4.79807880977778
P        29.43474186823743   16.75389820868538    8.11926817922170
P        32.52002799747232   17.60550810457773    8.76952278271324
P        31.53138011238419   15.02610928107598    4.92241631876256
In       25.89852153375255   14.45496206902362   11.46974089336251
In       31.34101765227089   16.60274218654350   11.78867858512672
In       29.50634271605563   14.13538790808039   11.19934852213675
In       27.45651891798149   17.31248193572632   11.65426297049580
P        27.72512971365062   15.43731635660348   10.01000568579992
P        29.30128783922522   16.76991883889062   13.26442464355920
P        33.23472777376361   16.24948232615915   13.37970842967481
P        31.63321567351761   14.81090323585925   10.05085682915814
In       25.42933063036625   14.85811787217259   16.70201161408848
In       31.30237882152028   17.60356636447412   16.69760278031671
In       28.98032374884473   15.08799317017019   16.87899921504373
In       26.62438517182477   17.90160108640708   16.59056149814707
P        27.24991672472236   15.85923553612195   15.25043635885388
P        29.00439783088724   18.53273509605798   16.94273222108720
P        32.99730993084343   17.17746045814313   18.45489097717795
P        30.88304626483748   15.57645624472795   15.29461618520323
In       29.51563459389350   19.13925461121390    4.05714834485899
In       33.02956844483811   20.27033360792763    2.88413350366304
In       30.34523393665371   22.38336874833796    2.62438778825688
P        31.21545685505856   20.93838623010435    4.44003164722347
P        32.33629763209902   23.67399634534044    2.09538672691694
P        34.59722695447869   21.54155491982140    1.48067047353285
In       29.48701512642710   19.21636709033041    8.58666258715349
In       34.63716715129048   23.17384219676957    8.43983540075041
In       32.91544492098886   19.82954554001134    7.70446877381748
In       30.96433283920024   22.76945267502025    7.91511264907875
P        31.28544016935786   20.75830908821397    9.35446538722525
P        33.07706546324570   22.68575427269519    6.62616280534098
P        34.90782622226376   20.75111575780038    8.90585267113937
In       29.72027779408489   19.23518217866105   13.51715095296101
In       34.93978438500751   22.02200828120441   12.97675346368780
In       33.50270666482702   18.76088591122235   13.41513226650233
In       31.49561024965913   22.09920465008701   13.00488577702560
P        31.79265149184796   20.17706269310592   14.55819788027021
P        33.22404254174923   21.44081055412626   11.33195580750370
P        35.66028822117588   19.89358802061932   14.04938438225917
In       29.25395383877511   19.14179979371761   19.31894327817587
In       34.67665812304848   22.51699392156188   16.71330699870492
In       33.24770237023517   19.61344229843164   18.84268726045052
In       31.19013660104788   22.79014745696351   18.25855010532158
P        31.14707380070534   20.71339591467097   19.55800932942219
P        34.37772657291725   20.06735765345460   16.66175311508403
In       25.91402390774533    2.31182970517780    1.31590698128594
In       30.78835341422024    5.95564289020720    2.74975775548016
In       29.60780810001099    2.50907494255248    2.62231807303256
In       27.35801190620287    5.61079704957746    0.78151660967534
P        28.11918434329382    3.25854249116057    0.83525706219822
P        28.66764151758226    7.14570678320011    2.21771959409917
P        32.22233002283416    6.04846064916076    0.73951171621652
P        29.97738929931588    4.21415717976060    4.31235838065087
In       24.94732573736349    2.23623719535621    6.27826242862793
In       29.40765420195677    7.07627596862909    7.70410788610195
In       28.31729868533896    3.16913864872168    7.63792368348720
In       26.94240307237715    5.71692198887939    5.65476083286241
P        27.06205789034177    3.23316954077208    5.52424284694340
P        29.01710307738472    7.05391121344352    5.24249873196484
P        31.02132413239989    8.98150514918512    7.80442430547521
P        29.67273661223214    4.85351798303932    8.81863341872996
In       25.80925370784735    3.10955800934252   10.89563058941011
In       30.49121851553165    7.87520153947945   14.11459492326303
In       28.03958048647158    4.26806625044495   13.03704465930770
In       28.74978280924068    7.05777731468404   11.44276408344301
P        27.28801910817332    5.11614058663500   10.80774543491247
P        29.23277718015985    9.29191218067825   12.48993031885736
P        32.82754935802564    8.61029288907767   13.72764380936907
P        29.83399377595009    5.47769852078505   14.27113530410766
In       26.33812076970820    4.72778621070152   16.41740986244538
In       31.10353351562885    8.24799238300529   19.56349952033669
In       29.79368011372491    4.44764176876808   17.92161495751695
In       27.58917294953235    6.99852657287605   18.99319293482416
P        28.36040057869608    6.12978425833174   16.78803435651221
P        28.81319235382579    9.15421598791856   19.24205001780071
P        33.35576561457761    9.29196222574116   19.43472887755459
P        31.45096047105843    6.25116645733020   18.15593483176207
In       28.46758330790063    8.87399996747016    0.43162437119210
In       33.79669972628337   11.08785500828053    2.86217368859254
In       32.14151481102080    8.51558028283778    0.58935341781733
In       30.55254803832255   12.23634324437664    0.99419981559707
P        30.37062018767678    9.84988799185778    1.69177180517803
P        31.93594304925785   12.74224763454209    3.01697425248050
P        35.78798298253332   12.31538543732274    3.68483505916861
P        34.18511038835384    9.90781547359943    0.72742138220756
In       28.39310495258852    9.45512884793423    5.24565003259207
In       34.17656136790313   10.84962301144106    7.84392793363295
In       31.85009610747587    9.28538640577570    5.47843348668836
In       30.31689416434301   11.85445143447873    6.74845864710188
P        30.25013404779048   10.93505097756726    4.43668128103907
P        32.22459013882303   12.34458099287831    8.25663891637904
P        36.19912372702623   12.23901147830734    8.34902174899281
P        34.34200474635846    9.38898730753358    5.83908751168811
In       28.71843204575559   10.61635259604598   10.45545467245263
In       35.15261463795851   10.68492299144722   12.61321897798484
In       32.49797844626604    9.00040386880680   11.30373653873209
In       31.26752783872670   11.86457029602932   13.01392307006145
P        31.17078689735806   11.00973653923393   10.68522513998649
P        33.65305887635079   12.50381650752215   13.43216654186645
P        37.62872483024203   10.87839950646357   12.85961746712063
P        34.84730129469048    9.37372635563832   10.52513632245704
In       29.06746724930133    9.28932345023265   16.79150333575220
In       34.69562471178256   12.22009370554549   18.46152881234568
In       33.04581075749022    9.50593679503288   16.99598574169665
In       30.42792545050008   11.85336624537245   18.26161304801809
P        31.03789955454969   10.67701882094550   16.14517964524954
P        32.43486801351511   13.09859570187047   19.04545641711496
P        37.15849205705413   12.61323267312474   18.32927907881920
P        34.37629336945626   11.43302162397978   16.12008364379006
In       33.26176187723681   14.34662911313134    1.65100082645331
In       38.50621912299091   17.77722936518859    3.06419647688563
In       36.64805170960665   14.58937637422424    3.11054568238955
In       34.67428225206468   17.32181412423879    2.51223017738734
P        34.31956603391401   15.17900097366326    3.76381960356864
P        36.35916163275954   18.99452890193198    3.26459293381732
P        37.79377388553759   16.04508895365777    1.51031587377932
In       33.07948767140584   13.65342381462363    6.31511241984020
In       38.03563480973975   17.46117730617571    6.82519700177244
In       36.33478307303108   14.34712804425532    7.00412802455002
In       34.93209260719561   17.25626634011660    8.19691277519963
P        34.18527426856426   14.87224980559262    8.19374444218625
P        35.73983617242416   17.99936914693506    5.96102127751979
P        38.92080970915763   18.85402111202099    8.61341198689862
P        38.47473761525213   15.24986224133632    7.87715627499777
In       33.42578694418795   13.51293950420341   11.19162163800433
In       38.92353102163474   17.00236563334305   12.30910973483007
In       37.29982458661036   13.29762128525629   12.34273428928301
In       35.38432815964845   16.06763077309741   12.11934686176640
P        35.76823837178643   14.12236679282679   10.55706387475400
P        37.02540678147699   17.34394637349467   10.73824797488618
P        39.52190306482853   18.55476835072604   14.08671197348466
P        39.38915940546555   14.59335546067303   12.75598503866557
In       32.28094786354472   14.17085591733175   16.81991134624021
In       37.71159855413317   16.25280366765105   17.57723357705601
In       36.92286685565170   13.48074212708254   16.02056725071660
In       34.58218896354992   16.83748724593088   16.57290517110874
P        34.62622124572057   14.40794523471503   16.08282331011034
P        36.75514746294682   17.83409431354551   15.88466004612757
P        38.46799318977314   15.34549786601493   15.38030455559167
In       36.50143766660238   20.08472815106324    1.04820266739903
In       36.19485564381887   20.30861264048067    6.81418879873065
P        35.87500705144143   22.08758398336261    5.17386410715973
In       36.74274585200157   19.57009269984810   11.81986503997321
P        37.49101558734050   21.58496174375275   10.66994187791109
In       36.56885567233787   19.51354179174200   17.71504998502032
In       34.07853119203872    5.23760816382240    2.16173300462806
P        33.35871372702317    3.40101897927555    3.57876126622579
P        34.29790848760908    7.16000429789170    3.69606582731217
In       31.68622761817431    4.28842592390979    7.52299964199002
In       35.56119348412899    4.42642584994259    8.06478418460761
In       32.88583028710984    7.33630654926257    7.85369174639539
P        32.85842004611118    5.75308455478117    5.95933004471748
P        35.08128830738723    6.69397138676632    8.85803908077257
In       31.44804052554153    4.89435888291253   12.49575353819367
In       38.78210931641647    6.99193363344917   14.27351370964706
In       34.39701768668852    6.83382566412971   12.98223920789980
P        33.28107447063703    5.69675722267517   11.08899156130050
P        36.57185029903092    7.85610238645273   13.69662389156822
In       33.22684656979550    5.61875683672738   16.63535965987199
In       35.51356289688337    8.14750639166652   19.14489979711624
P        36.07652183872656    7.94552853058687   16.78327472981165
In       35.62737904543132    8.31835542009606    1.96238877232259
In       37.05197068933077   11.52251045071370    1.68992714022841
P        37.50472361382058    9.50259158340123    3.02021387551251
P        35.99738689050749   12.69074627958501   -0.15436769776234
In       36.06054044962071    7.88462852305780    6.87905929240674
In       39.99427070737428    8.74441756764007    6.76353472868493
In       37.15267655318358   11.01363955036444    6.40318640502767
P        37.90119893354611    9.19179584151716    7.91998770529604
P        38.88627885015326   12.08809331491830    5.02603021982835
In       36.87126144738796    8.09803264320010   11.23666782824442
In       39.48064456955277    5.50136739986888   10.42793450204208
In       39.47924083225497   10.27415208620046   11.33295130433683
P        39.27342459082233    7.90967888280786   10.62356260841346
P        39.18698446303682   12.05878053298977    9.67513542491966
In       36.56953865566074   10.25540041758772   16.10720082778687
In       39.32436530998088   11.45871726760231   18.13768857415159
P        38.89341212348105   11.00416408103656   15.78416123091336
In       39.82189490082658   13.91047272386490    6.32030916558262
In       40.39548443443238   13.94555498412824   10.60788453476130
In       40.78584901049253   14.86866518741441   16.02495650972378
