60
 energy: -3.769245787352 gnorm: 0.000617260443 xtb: 6.4.1 (afa7bdf)
In        8.05410032738158    3.84296020554331    2.53612949472514
P         8.91583048086133    4.21467596361606    0.30214713694460
P         9.64028195068644    4.97093337407790    4.10414685652340
P         5.85536056911168    2.99635295812813    3.14511082070797
In        6.33459625471503    4.50884722397892    8.62840410080585
P         5.65660731326016    6.87107022973809    8.88663089588983
P         8.81490630158154    4.41678351584486    8.93025377995995
P         6.30302908497887    3.78125343833208    6.28040272040025
In        7.72546513829632    3.35741443246051   14.52581753440652
P         9.29914625773821    5.14580224204628   14.11297818336921
In       10.98536226292243   10.15664014579886    2.89460431063425
In        9.23423846153598    6.95542567910705    2.66249124783318
P         6.92371053096044    7.33908751899813    2.02191387154930
P        10.58676689746392    9.65356228878748    0.56216068682672
P        12.69966212352274   11.65745520612079    3.75142749246570
P        10.86840788004977    8.04415097827497    4.21573814112303
In        4.32364486903491    6.76368844186567    6.83308272640610
In        9.69417247609368    9.96122762489827    8.59986107972840
In        8.60189751364581    6.28817936103399    7.27457219458024
In        6.87312936057798    9.25720544515755    5.84889647381129
P         6.60607885057165    6.79859351079664    5.88979374669569
P         9.26255040054948    9.63181767769812    6.19415217354937
P        11.92551657671567   10.18747698567693    9.66528261629638
P         9.59088120556736    7.53031029932456    9.22070288280457
In        5.55152745897782    6.27404422233001   12.66310439705622
In       11.27697312758155   10.18900531990380   13.58816740213014
In        8.97361444939483    7.40143040533367   13.14841045625816
In        6.77100539419536    9.54343489407581   11.09313623176578
P         7.35535720430479    7.14850042650844   11.23867455731380
P        10.53365495601304    8.75833934229075   11.72750740710913
In       14.99390718139145    4.26397022149612    2.80907346864348
In       11.44647479117851    3.71559314680754    2.91100582954223
P        10.59849526314929    1.42527283254002    2.86072011314383
P        13.13157607490892    4.90766692412486    4.32078620361025
P        16.04274498028327    6.34102255851524    2.11994536162494
P        14.24336046208493    2.84061565018999    0.99569195770323
In        8.22926895358052    2.27373047436489    6.22698966492249
In       14.43487752582630    4.57565198487995    7.45816986678417
In       11.84889317334203    0.92245569991102    6.92586340618558
In       11.08872397568220    4.06663569082858    7.96921729948422
P        10.62390045080705    2.80750908247847    5.85452729872489
P        12.73051051085049    5.71955707538261    8.87052575547859
P        15.12024077427045    6.47963737096089    6.07470695485675
P        13.74668314125443    2.40833744897467    6.53981998607796
In        7.18633821460184    1.55680691030917   10.79298411850744
In       13.66107814277794    2.91937540711785   11.39116213018210
In       10.40317863368058    0.78271084696531   12.57419735144445
In       10.22576697063507    4.52517480702475   11.90864700068518
P         9.49349433049166    2.35032114206678   10.94355195288941
P        12.61757222238043    4.81211495444494   12.48023878892756
In       12.61507736331809    6.86868543924566    2.86601023682123
P        12.29573621918595    6.27415472171190    0.54306684000725
In       11.62900082510851    7.64363539783329    7.73243853143994
In       14.63003704459009    8.84100759162799    5.79155874091214
In       13.06672435099030   11.26755251440208    7.79779426947453
P        12.26577420808805    9.52959477486638    6.19832538318243
In       12.50064756645949    7.19907091087974   11.82768613302797
In       16.04383856584633    6.17624336573763   10.59213824278718
In       15.36285982659411    9.78693143657438   11.24627538566437
P        14.29300619034441    7.84738798236266   10.21138010764324
