74
 energy: -5.428888306836 gnorm: 0.004199120821 xtb: 6.4.1 (afa7bdf)
P        16.05441034751646   11.27127751574149    0.96518715509645
In       17.88636505840629   13.41922238763536    5.34669166079651
In       15.51971908647820   13.58413774949453    1.53870058724100
P        20.32728268483318   13.16659342327205    5.38830047775797
P        17.21930271088972   14.30361948674748    3.15903078733287
In       17.19949300338914    6.11553000227260   -0.10083306447292
P        16.61239635363927    8.50098173368381    0.28691403188585
P        18.62524729545751    5.25335196208143    1.74175075724201
P        18.99322599519772    5.82487586693938   -1.74311181641192
In       15.33295401392039    7.90175548154346    2.30143195276186
In       20.36334236874311   10.54409699994638    0.85493417182408
In       18.95346541763033    7.67003503625216    2.21460133327579
In       16.99384182134154   10.76088200281466    3.18181291181442
P        17.19661343599353    8.37406650893461    3.83036003370334
P        19.37134732237115   11.41645490897345    2.95841909054362
P        22.40262793854674   10.02106751478267    2.20340985147449
P        19.63474544738445    8.34789279000461   -0.10137746616823
In       19.13662306410043   13.58001353804935    1.76213965610601
In       23.75384452304495   15.07658773819857    5.08542804411958
In       22.52832455443066   12.47042702901784    2.81849680426427
In       20.63181402100455   15.28900961335669    4.15896655629385
P        21.44279593972449   14.51054013685440    1.94187127677062
P        22.02876561337840   16.77644054013672    5.53997835379357
P        24.49174604578665   15.28161682517679    2.74297957222771
P        23.15031999099170   12.66678832572488    5.21033902268544
In       21.11749408327008    4.66633786218278   -1.90467282412949
In       23.19061901086780    7.07358554680098    4.20047365918718
In       24.41841649560412    4.21261713558250    1.69362179257281
In       21.08446776229603    4.87291508095926    1.78557796478234
P        22.69705691696778    4.44569278021179   -0.05170351504818
P        21.98885225017372    7.17691889472048    2.01143685965340
P        24.64147893725423    9.00869580346634    3.54282846974841
P        23.89877800385882    4.71120211050424    4.03901446903562
In       22.07588351635617    7.82955357745939   -0.37805117960290
In       27.72074783821938   10.11306181769788    2.22648157171844
In       25.25420842355078    7.71497109300473    1.50107185080036
In       24.19799354267188   10.73811420812978    0.60232579860341
P        24.41318903647922    8.61739308148951   -0.65707488490704
P        25.73683343027332   11.60988659964385    2.37701756386378
P        28.72494614605839   10.95009353461826    4.34573521674201
P        27.74035399854647    7.73508444817509    1.50717653209825
In       25.56938566804483   12.20740622000284    4.79767754698855
In       28.99610782007406   15.54467038782810    0.59182930128102
In       28.50933669463664   13.31491555749177    3.58061406120759
In       26.69427136816437   16.06191885912622    3.53997490924935
P        26.90803626375488   14.25498729772115    5.24542234528973
P        29.00678119104278   16.51306997714611    2.84521058677719
P        31.32656153682639   15.01974214845758    0.03212757334570
P        27.54071082563594   13.65181018303629    1.31855557907694
In       25.86653610904423    4.42811266702088    5.49271855322830
In       29.75265155042090    6.11498491797762    6.17489960381968
In       28.22631062190543    4.13883809532781    2.54966342155984
In       26.63724293020712    8.05924902757179    4.73558542702175
P        26.80032885697968    5.82364420124309    3.67381407607778
P        29.06231403520747    8.33676100006246    5.30250490497256
P        32.08507425323727    6.55729693460177    5.44403675694215
P        29.35255021807335    4.15612749415004    4.73032404850689
In       29.60860621827437    7.34554666409195    3.09712406487577
In       32.88458836472017   10.94897867499631    0.94014891679186
In       33.37737997724299    8.48821077701452    4.54172328398573
In       31.10988815541302   10.83445404807360    3.62090278881632
P        31.71424004705897    8.59850381200711    2.68693923403304
P        31.29072416752005   12.62805726386926    1.89405950277769
P        31.24502183270370    9.40332643981530   -0.08324004311929
P        34.29150247053209   10.11065364926657    2.84311964305613
In       29.39446183336953   12.28765047261086    0.33025342760212
In       30.67099366106191    9.99642318675899   -2.37153258302575
In       32.19136377965926   13.50034886120252   -1.66045092874429
P        30.07019514295475   12.34869750622935   -2.06054004023397
In       31.11773776657343    2.63800396025063    5.50555995179662
In       32.29022455448675    5.32924045101783    3.31097617478690
P        32.87319794006643    3.01027258337394    3.88061566357126
P        33.68580994571764    6.35641659246762    1.56853167746057
In       35.24524920754731    8.20862981014446    1.58502948315850
