66
 energy: -4.468733578501 gnorm: 0.000521097774 xtb: 6.4.1 (afa7bdf)
P         8.22623855962171    5.06525273293692    2.61641487065288
In        6.97226396487116    4.07563934474694    6.26180087488628
P         6.37739470879478    6.07631200693995    4.92353534386971
P         9.31942062012313    4.58818932128178    5.58259198326693
P         7.37945272047494    3.02137769630282    8.47824199123475
In        8.68549250185736    4.56993933222665   11.04752884812780
P         6.50500082320104    5.30294587610959   10.14363316777650
P         8.66678415595371    4.95343376864589   13.48825240117626
P         8.15824675004917    2.15491475309717   11.19283959294597
In        5.98555590841653    4.57281944734171   16.00203441887843
P         8.26643411307494    5.27248310188200   16.47536309508087
In        7.71453284610696    7.37425539296112    1.95801353957125
P         5.83363080275461    8.52335149449737    2.99853827482881
P         9.94709114788520    8.30418694939148    2.35817297261491
In        5.17015140430954    7.09273242727896    6.79861606451282
In       10.40205977547100   10.12612337691305    5.99109072388587
In        9.00460802849072    6.86243693499601    6.61570435608920
In        7.20046350999107    9.84810527111335    6.95604288750820
P         7.17133487913636    7.66078583944001    8.13855560654086
P         8.33258075992839    9.42677323430371    4.82080325978710
P        11.29922264602688   10.42235896458419    8.26773576898655
P        11.06240451779830    7.77701973334141    5.47425527826854
In        5.75548064643032    7.06027448545334   11.64927019544097
In       11.51536110341468    8.04568916495055   11.52287524389712
In        8.84277412061752    7.40368297372385   13.77986869423579
In        8.33283246610626    9.85674338979330   10.96756139778426
P         7.06735519224513    8.79204666650317   12.77110465173794
P         9.52781685856382    7.93193826055225   10.07277883940374
P        12.47821264447899   10.28040970320158   11.04227123499526
P        11.23273406601562    8.01818386265383   13.97539846198561
In       11.32128801665458   10.52849514536303   16.86447548814838
In        8.75788049027300    7.36667028164992   17.65735977682354
P        11.00214526462634    8.12663709365630   17.02677159301568
In       10.38089685583176    3.88402165959722    2.54751609257673
P         9.99006604472654    1.77152036709984    3.70725919828917
P        12.08300633258681    5.11428189268256    3.88072676644075
In        8.37924799515870    0.97183322148149    7.50881104267430
In       13.73217716214417    4.35621833885909    7.11592540152305
In       12.15463355595445    1.07566127403662    7.27283640314210
In       10.27394445824976    4.05392547612553    7.83332049859107
P        10.34019232348888    1.73959433265301    8.82374188610756
P        12.20236828403122    5.24043598998687    8.89193775430160
P        14.02597122719899    6.29977344619774    5.58395601679252
P        12.24006185333512    2.95335220843910    5.69683223510956
In        8.71788243349488    1.35697585626578   13.41995048294177
In       14.26883095029723    4.21106106230244   11.64412649195333
In       12.44001596479398    1.02970201041573   12.08431191666194
In       11.03319272201212    4.16767409049635   13.43824452239848
P        11.06761232745971    1.74523769325492   13.98475159537389
P        13.44388630762667    4.45249448515133   13.95001253312125
P        14.33454651896920    6.35695771896551   10.39842959350405
P        12.43652554469646    2.93515103014765   10.54390379106511
In       13.77620561393859    2.64318610470280   17.25237916696272
In        9.96741315931973    3.75337298382793   17.37765499786728
P        12.23169805203879    4.45081734889226   16.72504782400114
In       12.10936527691469    7.14097558313028    2.43627756347656
P        13.67790554476227    8.70031939845255    3.47458972785284
In       12.13030206384249    7.44376811271925    7.71268338692616
In       15.54249576489699    7.54066873727514    7.06581378746929
In       13.61274213483102   10.82149972472995    7.52121973622154
P        14.07973202154346    8.70043939979671    8.70034795691263
In       13.40389045717687    6.89533893969829   14.34782545244770
In       16.07015220406339    7.46248401527563   11.72706874202748
In       13.66729328823841   10.44774914483734   13.16255754267908
P        15.11839860624485    8.54871061386368   13.69940404289868
In       12.54109090952952    6.50409280546466   18.04199495177328
