106
 energy: -6.177693066875 gnorm: 0.000690152158 xtb: 6.4.1 (afa7bdf)
In        5.54383427168512    5.56990389090890   13.88537657615709
P         3.82848415901195    5.10287169245836   15.49574079537024
P         5.04435495623509    7.72562125209178   12.82068403769843
P         5.86496349840112    7.84568423952070   17.00065842106975
In        0.78650228417019    2.91752250325946   17.66879934602553
In        2.59596290705173    6.65755655476769   18.57242070481691
In        4.04441188201880    4.39097716172065   21.01513195639428
In       -0.14793591603408    5.64580908357255   21.69566831415444
P         1.90797832193929    4.45233218790149   22.14144437087828
P         0.55097546892030    7.17845320617128   19.87654438441593
P         3.93008518920559    7.61383671338441   22.80460546557804
P         4.80567287558655    5.93426773302890   19.30664276925529
In        1.25130632404259    6.45682012623179   25.63149461608376
In        0.93979936836826    6.55211330775334   29.70604882932246
P         0.68141759732571    7.79727961568353   27.60454415388920
P         4.49078096768375    7.11690680383946   27.72344486679586
In        3.03680808638079    7.70939816130111   11.46958757505697
In        4.68784702968610   11.14308039101285   12.52723022678021
In        4.56926672281263    8.66912180179760   15.08559549248973
In        0.89308241783476    9.81852037118987   14.48797743439513
P         2.23038396054714    7.86276116115487   15.01316004688960
P         2.35943581769313   11.45451244254807   13.33921396963720
P         4.59369631824628   11.54848028037379   17.32913079228005
P         6.06402515371122   10.53810132626046   14.43824033391514
In       -1.21068052310141    7.08604328165937   18.16906947085673
In        1.24134055484459    9.94531801237568   18.30238249266260
In        2.10468110803806    8.45779796049475   21.39936431312447
In       -1.74675956869780    9.23289240610878   21.51286371902629
P         0.23757735878176    9.10345187729608   22.91320514723939
P        -0.55805661728933   10.62813600902532   19.85908920514019
P         3.27549803546835   11.54858291684473   22.68391035184625
P         3.27388162167810    9.77833086031296   19.64416691829149
In       -1.70153039312445    8.35024960122379   27.40978225570504
In        0.66409325832378   10.66574037319454   25.79162930549804
In        2.90152600751583    8.98006967097581   27.78525837721427
In        0.39741252300559   10.54599339167773   30.19882189923639
P         2.73532723868821    9.90823968016607   30.08122431946650
P         0.41543129189809   11.70003046684598   28.02205562195140
P         5.25666663786005   11.71121477626315   28.01817860005879
P         3.01689065512582   10.05414027036878   25.54762886177581
P         3.50963840981125   14.44981794672971    8.56128827671842
In        1.19271765353961   11.80353450501948   11.20844115871425
In        3.73291554481671   14.50559848404843   12.57413792554398
In        3.23389861611585   12.45617656726701   15.48306286562486
In       -0.14389350068025   13.77565313429322   14.45136666975502
P         1.08686744055095   13.25026988301257   16.47046230899113
P         1.51538548222684   15.27034538612617   13.38622966234870
P         3.86407020561657   15.26386976775934   17.46980725706338
P         5.04747221818503   13.83737813246175   14.51003889007505
In       -1.82692471203440   12.64120797735046   19.29835494226732
In        1.01062197144072   15.18431571455358   19.66412781290109
In        1.19544821385863   11.69061373773236   21.34641597124465
In       -0.94983311231597   14.80909218117659   23.27687598544605
P        -0.43991119518827   12.45064985702833   23.03846583185253
P        -0.36897235994527   16.31579803683015   21.39832723624769
P         2.64886512191287   14.76027490482704   22.65864695867815
P         2.21192931659568   13.06120514052836   19.56392214163471
In       -0.64201252497553   13.89399235940600   27.88186785856577
In        2.36745411283911   15.74402154943071   26.11674058085037
In        2.86253218522335   12.32547501268532   27.97520184635095
In        2.28599726149323   15.81410566088604   30.25503733444341
P         2.51118146020608   13.40112761253928   30.17085277978404
P         2.18223588998425   17.12941327407785   28.16356784664033
P         5.17869532103310   14.99080080243257   28.01775070384259
P         2.71531123629704   13.36515852804528   25.73989567375131
In        6.18124254276182   13.99497541040821   31.95243086284345
In        0.38244010462864   16.04469262839553   11.35499348356739
In        3.33605618582179   18.36644106346381   12.43317447649759
In        2.66694048347350   16.08553348200663   15.47567346931065
In       -0.62485616579301   17.96999832193136   14.62324282120160
P         0.49712859830947   16.80254857373091   16.41741516342286
P         1.30891527652855   19.12790003984353   13.62006535791929
P         4.09373353243231   18.86046317795313   17.44324047714270
P         4.46449071386747   17.32031514254340   14.30453630522832
In       -2.49908677396898   16.77242031792368   20.26720313245541
In        0.67272091381192   18.59697055943635   19.38720267820229
In        1.84586249104620   17.05656666343409   22.36061516495704
In       -1.34394310797355   19.14463907085847   23.29952146253710
P         0.72740096022641   18.27520599889828   24.21065118473323
P        -0.26662713491012   19.95589163181179   21.23337567109481
P         4.30873314934923   19.65340166205419   22.84914459033107
P         2.85144717894494   17.84780819442796   20.22429097485650
In       -0.10151767974444   18.00305647680606   28.01255879329207
In        2.97096008060445   19.98021324406557   26.58198207564725
In        4.69681137162975   17.38588701143209   28.01647841298765
In        2.53472278544218   20.00686257066061   30.34525014393172
P         4.62875878860129   18.85799672355871   29.99170716032311
P         1.89834501716651   21.32680209611475   28.36163431700552
P         5.44542236170237   22.42325137904887   29.86067717390997
P         4.56412430772198   18.33668639184219   25.73573186438198
In        0.72486228893200   21.43116570735857   13.02920981282354
In        2.49471133140312   19.71561791328300   15.77542916273856
P         0.66180835279569   20.98829998052333   16.78970712862698
P         4.05969098327748   21.34434905861359   14.83144307079434
In       -0.80219842519024   22.29142934007854   20.74910000060818
In        2.89854825230212   23.53408399990486   19.63322394119562
In        2.09148271327457   20.38651774608858   22.05957135909146
In        1.51589343664166   23.95894586596024   23.72386508141954
P         1.16929085140858   21.58138087033237   24.01177348524613
P         2.43395948999869   24.78777499049928   21.64747783928014
P         5.82776032682497   23.06016422078737   22.65371621005676
P         2.89991455943805   21.12350889862184   19.84805654494431
In       -0.26585830981471   22.23943505140160   27.69971810103366
In        6.60094964983300   21.51616268637357   26.23566329180137
In        3.74870355476273   22.98597456702532   28.23371262858690
P         4.64214335434488   22.87737905159784   25.95473226600139
