62
 energy: -3.520977137076 gnorm: 0.000415124716 xtb: 6.4.1 (afa7bdf)
P         7.15990280626436    3.56029929480501   13.45226239182983
P         8.20105220494741    0.64703657996532   11.01324260829652
In       10.66849338725718   -0.01245910163764    5.61571557532348
P         9.55025220587375    0.01149073817772    7.74127292627038
P         9.02709251174723    3.63219063048455    7.39451246161299
P        10.99547926276270    2.11142466463887    4.44087428222931
In        6.55655485764621   -0.55364200402960   12.29382588251887
In       11.25618555476248    1.96868436204807    9.94285394372297
In       10.15190733336040   -0.97072494675988   13.22386243583428
In        9.09796727245331    2.31220048324970   12.61391637405536
P         9.87518554118509    1.02733701599945   14.58809975639844
P        10.52766834628091    3.85860355422943   11.30483530406965
P        12.03211966813151    3.67359180616353   14.40237102568823
P        11.60231147702950    0.04176054904335   11.47308130543912
In        6.94040710339315    1.42417723908738   17.37329064142634
In       10.51848746993635    4.17580494634447   17.62197114177158
In       10.67619805313628    2.60325740199200   21.30509369203057
P        11.16338751518415    6.12268286776184   16.37263299210412
P        11.71670495230837    2.56822588936311   19.07873401244790
In       11.69571240597018    3.74638238929334    2.80219663485935
In       14.56621287569830    5.53851911627041    5.15645459399228
In       14.45610965570036    1.68724078055219    4.93017378626135
In       11.32321196713371    3.34435534754885    6.58324775450430
P        13.43474993824389    2.14318115338115    7.08556893271842
P        12.37350858896676    5.53919626810611    6.17057665075505
P        15.10006342886443    4.82580889923861    8.87711578426862
P        16.01927925195838    3.57769996164188    4.99099863920862
In       12.32015803518245   -1.97157817871633   10.26189325117492
In       14.63293696260152    0.86857791832164   10.51925669712534
In       15.27710202610199   -1.19404059670776   14.42021186532608
In       12.66628054048510    1.75371477709507   13.00246791650584
P        13.09388137805121   -0.13848624814861   14.54565902565285
P        13.87146615009497    3.08804176895552   11.25839615803351
P        15.49260639553915    4.45922809529760   13.97596083686276
P        16.02183111353269   -0.09516846460105   12.34398955312470
In       11.34781383260684    0.28584859345255   18.25357018178480
In       14.28478372599866    2.06014728873584   16.94133976462289
In       14.31180942486726    0.76546027554580   20.98521766261387
In       13.57169993182929    4.21137462217984   19.49421143356981
P        14.26161712456473    3.11618618754612   21.58578786601726
P        14.47565947772432    4.46733054048549   17.21791991313779
P        18.06463960580496    2.34486341707257   21.31937105964220
P        15.45824449492776    0.94837828825161   18.80759564677080
In       17.91876283660366   -0.05734882534549    6.18730430174630
In       16.53439387409900    3.46734337040052    7.42891338548671
P        16.41046702868042    1.00683196133723    7.72316501924469
P        18.79830399887475    3.99685848855689    8.19899980666942
P        21.88858069945652    4.74039091382942    9.64397129692903
In       17.55621937233985   -1.58148091652513   11.16114392404835
In       19.54830887448933    1.73181066538610   10.92379504749209
In       19.10332817078080    0.16327763524439   14.53879226470830
In       16.27887810460837    2.22657660962904   13.28640829364409
P        17.31886026763453    1.54021457568562   15.42218706046373
P        17.34904920842856    2.73807849269811   11.12085388070065
P        18.59088336532850    6.12137743304738   14.91520559379141
P        20.26675977907226    1.93265952278906   13.27211563475821
In       17.39753723075353   -0.52100102024859   18.57074932191185
In       19.95485395360355    3.94783981407209   17.83129254948901
In       16.69044676779019    3.02995025389659   19.44126727079421
P        17.58845055100333    4.26979203579401   17.51961384576387
In       22.65770874856375    1.95918129130375   13.77394377745022
In       19.43796381019231    4.20741602586922   13.73986736207933
