54
 energy: -3.908779364997 gnorm: 0.001893779053 xtb: 6.4.1 (afa7bdf)
In       13.38482479419744   10.13075131193432    3.56770303903446
P        14.82111445359537   10.56703834459728    1.60698666858860
P        15.32413816129523   10.70104120637291    4.93081944898269
In       15.55254652609828   15.89797091074966    3.08492290135334
In       14.26247478456173   12.97526809133516    1.72562039642920
P        16.69035991799072   15.48362270563676    0.96402088322810
P        15.49067217692019   13.53023382605984    3.79413372229443
In       16.44249019434943    5.53205454762002    2.08165422217204
P        15.68293628721246    7.85480170503395    1.76909504448172
P        18.75404526972424    6.04164310610638    2.80295408044873
P        16.68369887912570    3.25540613241431    1.22289263188031
In       16.54212252060467    8.84774315887277    3.84841471300966
In       20.47367658053825   11.40396827153214    0.87052992729686
In       19.86968593483317    8.26449831206719    2.87084478911496
In       17.25069625912602   10.97419232944597    1.27068959727262
P        18.49678871375728   10.30950030040280    3.32716143448266
P        18.61882799507242   13.06937036409372    1.02928671999850
P        21.14943442453515   12.39742728956061    3.05546878751588
P        20.01553405971535    8.99723200738702    0.50173931800542
In       17.95051113538152   13.55320277942474    3.38483725419181
In       22.77653524753926   16.46303386722908    1.73898638233973
In       21.11668564151766   14.42991231361472    4.49374129164582
In       18.85990440575916   16.36883442120563    1.72494353881843
P        19.00365100306095   15.68598664876870    4.09729118540506
P        20.85662947399423   14.98789940876181    1.24812984689376
P        25.03792678733316   16.10807301078614    0.84994575836449
P        23.17869448240458   15.73957371344968    4.06806008417945
In       18.89964834503483    2.31218242162596    1.50668927050188
In       21.74762494675174    4.55399948448522    2.92424088884139
In       22.38468926588973    2.99857171025152   -0.42707018659614
In       19.53957145339927    5.72875804814402    0.46869485642616
P        19.97655036193618    3.43987114689602   -0.37912227191181
P        21.91244401728882    6.18379061616211    1.07223620873685
P        23.98052249130946    4.99039077733680    3.92498052017117
P        22.47881593078066    2.40201988131933    1.94139336260791
In       22.46179244372787    8.57060405469748    0.71385592292623
In       25.50842956582333   10.41267649664151    5.00221890229805
In       23.33836994025193    7.26669845049107    4.66691442089739
In       21.82645935780985   10.59138661891913    4.60194323385064
P        23.11046753493652    9.14086546905635    3.05888038927185
P        23.70705640226176   12.11531582031989    5.14373869682980
P        25.84547246186194   10.21994366351674    2.55929301041612
P        25.31093750479659    8.11390646188300    5.89312842530628
In       24.13850550931445   13.61816351754166    3.20433464930205
In       24.85262467639254   11.43357128447067    0.63833566917814
In       24.37050726876636   14.50085193894870   -0.84988301923214
P        23.15971500373864   13.24950023842130    0.92442997568534
In       24.54259779233027    1.61134913942495    3.00335001476586
In       24.87209681471398    4.87114574749821    1.61141253458139
P        26.25249578785740    2.84912107362087    1.80879640543884
P        25.34325333416961    7.27959763122412    1.91293273944201
In       26.68766509375241    7.34500929015536    3.97889683485265
In       28.20794844674100   10.90339582516609    2.44596332418487
P        28.50906938895146    9.00133411222817    3.93260155374951
