82
 energy: -4.555394774817 gnorm: 0.000653838069 xtb: 6.4.1 (afa7bdf)
In        5.90744604708705    3.19951156197159   10.41319765392941
In        4.94059879644285    1.45464884691149   14.04696289215921
P         5.81256818205611    2.01586956645605   16.21157706448239
P         6.58562514761899    4.80735496045173   13.90310146323783
P         6.52663820169343    1.57935038457394   12.14172993699758
In        7.84484497177663    4.77788483552274   17.49084515257001
In        5.25900399815894    3.02937071344600   20.00013899197176
P         7.78482458758071    5.31832295023952   21.98022694188873
P         7.41747652930493    2.77404595027259   18.84962427531925
P         9.82325373971647   -2.17010036977780    9.61451495253225
P        10.92233986302478    5.58975300773246    9.12568551283116
In        6.52015951854503   -0.68840381724988   11.23182783506365
In        9.43021612887859    1.86134219108701   10.48523738126825
In        9.46963891612211   -0.72238024756786   13.84110081340302
In        8.14812498803234    2.96544200344803   13.47939448846654
P         8.93740734267890    1.27289945240860   15.11444457336589
P         9.40253197507282    4.02554418849080   11.61071036062133
P        11.14141556610712    4.26101886598752   15.01896854925724
P        10.70811208197662    0.42441176329560   12.03591525313126
In        7.82100709535221    0.35297192859618   18.73144833304737
In       11.07103242819962    2.36162606729165   18.26346424161629
In       10.46313186765074   -0.48651275328445   21.64524282558459
In        8.85065081890960    3.44474797599794   20.82658817887285
P         9.25067244384025    1.50421801456618   22.28171381766643
P        10.70840604333449    4.42064916725237   19.51303807538017
P        12.08373681176625    4.19847722003209   22.54410039783767
P        11.73329615821536    0.47658464435702   19.74062694829734
In       10.85300822994682    3.43258982297773   26.10891723351895
P        12.17650197519706    1.95996605240783   24.71600262107884
In       14.60511030992330    0.75562133257325    8.00199860946769
In       11.10376545092428    3.62444843064144    7.75420824353086
P        12.41886065717221    1.67413677839518    8.33263590948162
P        14.23144288119195    5.19694892187471    8.99997370836030
In       12.84057966811356   -0.63553452797800   11.49512562804469
In       15.01992636082313    2.95468634190884   11.90870305180318
In       14.82790869986666    0.02363407702664   14.77973659672038
In       11.48718199147603    2.33090949923643   13.51385334400396
P        12.49119517938358    0.63668985903360   15.00055613580202
P        12.66396952275393    3.47659308540334   11.67460952977765
P        14.36389229951868    3.79766439423365   15.34152667766790
P        16.30576730465863    1.44535111263868   13.38922683331275
In       12.11784332760944   -1.44550633045573   18.26827040533321
In       14.45886987700449    1.55264262628107   18.18734549388941
In       14.98335331442087   -1.04527750120095   21.18726026955641
In       12.78905193190661    2.22166074510245   21.23592658998562
P        13.77298589993641    0.43698656531805   22.67559991561651
P        13.86269725058357    3.56164447468920   19.43347590418067
P        15.78334411940570    3.76616007755941   22.54524233299855
P        16.15063131599275    0.17288611017295   19.37660261326210
In       12.35155397700589    0.02064435203133   26.15591166989382
In       15.64939772688912    3.78189757640445   25.99598980367577
P        14.73148753982654    5.76214358093070   24.99829999009958
P        16.29997415088889    1.67241419386492   24.97165576820765
In       16.58732471420457    4.81033824558989    8.77769524714931
P        18.23980332657407    3.09682717447490    8.50964646071096
In       17.25898316499482   -0.15281854322656   11.79060313144130
In       18.95768595314113    3.70729358907064   12.24691901211761
In       19.34679551179451    0.55677831206948   15.10089944450080
In       16.72269146432674    3.16213816349017   15.20200841166958
P        18.18069457296369    1.89531142055974   16.75241044948803
P        17.69086845847101    4.98806492051217   13.85748804204057
P        20.76770544196600    4.55396785504380   15.71070903763923
P        20.20510528553743    1.77376542906888   13.13497487723865
In       17.02476128291098   -1.57497132126684   17.89263096531022
In       19.25572189546779    4.44771575453453   19.13020244754842
In       19.16042322684401   -0.06707200046369   20.55853656993440
In       16.61301465177250    2.17895575823467   20.85092897776776
P        17.87722012403793    0.75739795812804   22.46104931308408
P        16.87202300130389    3.97904680422901   19.16287590153111
P        19.35466656156568    4.19325342956211   22.93866021513665
P        19.89717448248904    2.10537201467247   19.58154234214005
In       16.73102132541881   -0.08896866460150   26.54787561364258
In       20.34879183238005    2.70452913476445   26.62671627216802
In       21.46099015355272    0.53958222511848   11.44357836342316
In       22.02951983158970    3.17231943803920   14.14818517286231
P        23.58361924285913    1.41695016157169   14.83547675989655
P        22.74150233197798    4.44000404564065   12.18703808225749
In       21.85495600276402    1.30200701927201   18.34152899903664
In       23.22828691470363    5.04417494761958   18.90331299057750
In       20.85576005525841    2.59237808347330   21.86345026949676
P        21.59149422437994    0.54898126839719   22.98542494207077
P        22.73010125314957    3.90547415289731   20.94410989790267
