210
 energy: -15.456241458143 gnorm: 0.000756716851 xtb: 6.4.1 (afa7bdf)
In        5.64888457243622    7.33534473526270   10.47564865858252
In        6.28948543003297    9.25321943163503    4.74789125800489
In        6.40798909523347   13.72207331749856    4.18656164211349
P         5.58108198275292   13.70839940151832    1.90972332678326
P         7.34259987107497   11.48280967688070    4.77603986026929
P         7.42355130588257    7.10182209561223    4.61952523982118
In        6.23123373442177   11.47742508393405    9.98376679936807
In        6.25376280683082   15.99579171953769   10.00128140140098
In        4.41814805118646   13.87519276065786    7.49252064230627
P         5.45077819375327   11.67519956714711    7.66747859174455
P         5.60757583170295   16.03539219240535    7.60357435598953
P         7.16237590371160   13.73023749135699   10.52184856618164
P         7.16782236021531    9.23937373797584   10.57189341269585
In        6.45079064548717    9.37012435471922   15.88514437968300
In        6.53470459195021   13.84291323933163   15.78715055059222
In        4.48665998462669   11.72693492317398   13.37960069155324
P         5.48642317758973    9.52335726924751   13.63583598208454
P         5.74440501645897   13.84637060907757   13.43008135649880
P         7.52442783255867   11.59272775432008   16.18984316497571
P         7.35236035334501    7.10845646406745   16.24770297340564
In        6.29362434714598   18.22833035346302    4.21767873066413
In        5.92968203708555   22.63433302503578    4.45635260781547
P         5.41237599406867   18.14180648875872    1.96393126611157
P         7.14609391228841   20.51158767419017    4.76216939568243
P         7.27017474243857   15.99559389123635    4.78300703533556
In        4.41578765234303   18.20055103889083    7.61216410823127
In        6.24327897781307   20.52518030466513   10.20069464416408
In        6.18821841635754   24.95075623588733   10.27859012550968
In        4.11305231083328   22.46753664702099    7.94434362059029
P         5.47529498934277   20.41642367688903    7.84165960527166
P         4.99171726703721   24.72047109346008    8.15920376745358
P         7.30957509601783   22.74843432999801   10.59317479845081
P         7.18859744727033   18.24562963702193   10.54355392785647
In        4.52131187914160   15.98927584023552   13.37261751700620
In        6.51906660961353   18.32804373411101   15.77794341941287
P         5.58667278321278   18.17737128157324   13.51047355246170
P         7.46582074960199   20.56553962170554   16.18392368688148
P         7.54358902702108   16.09131746578389   16.15322933952204
P         6.52724783933118   24.93296695191890    4.81956538840393
P         7.13526864464929   27.17607789816209   10.72113317723359
In       10.20969693608085    4.58883661811481    4.48476232558365
P         9.81926004391561    4.83065527726557    2.07777430771922
P        10.69000588669591    2.31937478982917    5.22339585167863
In        9.64353002791225    6.82362156561288   10.15194472966508
In        7.55888066003889    4.82338324343959    7.76867012371090
P         8.91609984788902    6.84590573386639    7.77783922993636
P        10.41725609830433    4.52557802908495   10.57020352359064
In        9.88903047288038    4.55271322326457   15.67397580456351
P         8.93037384987315    4.65092334888222   13.42818582010441
In        8.62467444361712    6.94021924892301    2.48629163529038
In        9.95454579526816    9.18644022337733    4.68648102586911
In        9.72993491656002   13.76904988092623    4.67155175548968
In        8.43304730496589   11.39336233927647    2.54496902128978
P         9.59864472889070    9.21215994482039    2.23668027912753
P         9.25916428574215   13.72011016693709    2.24419805832963
P        10.73581667028858   11.51979753377567    5.06712556522519
P        10.87014608384603    6.90778181657320    5.08882196508816
In        8.03511263602400    9.12898550220630    8.24853829931318
In        9.63065198297976   11.42522516069144   10.16990194486986
In        9.61250192888216   15.99764161778211   10.11618569790668
In        8.00475228174090   13.70639844916988    8.18852163639514
P         8.89970722315952   11.41842871711169    7.80145197353980
P         8.85710247489637   16.00331348413081    7.75140328432994
P        10.49193037461456   13.72166350088038   10.61482555172558
P        10.46762274632989    9.12389188482220   10.62283019574310
In        8.03486285790069    6.89901226571374   13.90168901388096
In        9.90229371468045    9.19571844762678   15.72723090298944
In        9.97288200479472   13.81047547021667   15.72420196214675
In        8.10914028080941   11.50718895049029   13.78609145622973
P         8.92460005539061    9.17848258049214   13.44522309253201
P         9.03207979321995   13.79178388127873   13.42192485219530
P        10.82507544471502   11.48950319073161   16.06666638962782
P        10.70809807250930    6.85752715586403   16.00785687827841
In        8.27678758738965   15.99317906786272    2.50472369637533
In        9.61940344195925   18.37352926749897    4.63413587624529
In        9.69583459285346   23.04402471472682    4.52855411164949
In        8.14545472658100   20.58701054980014    2.48229312152922
P         9.11882015823366   18.31662934730267    2.20995461435017
P         8.95098975576970   22.89616196418798    2.20347949072232
P        10.47466700102431   20.70172689481665    4.91282415200966
P        10.59284709714097   16.09503956917301    4.94269108520451
In        7.97893345792169   18.29002575526128    8.19630645763340
In        9.63032534901693   20.57939642994721   10.04145235961622
In        9.66425108764577   25.14250245171328   10.10213872298173
In        7.81189646516869   22.84931368141626    8.16512445826712
P         8.77611547974465   20.59821077729998    7.71244660791128
P         8.64547964390184   25.16977203122564    7.85030212799037
P        10.53783570031650   22.84940679251145   10.52290921431594
P        10.49714955491170   18.29297377184119   10.50706732799491
In        8.15727386005499   16.10014882091712   13.75529129904399
In        9.97812256035293   18.41557015657778   15.68103662989362
In       10.17103396593081   22.97205822175813   15.67989553566617
In        8.10266646227020   20.70887531608779   13.82275852978830
P         8.99123849381606   18.42027581883735   13.40304398858065
P         9.06986881793809   22.97686899253503   13.44453324664206
P        11.02356572387528   20.65668341688642   15.97227438168895
P        10.87744810390619   16.11553168993973   16.02449050949368
In        9.35643116711275   27.44850930221352    4.66702351341418
P        10.58123637802124   25.34672392129949    4.92830661972698
In        7.89238565416032   27.47146250021397    8.40910339503021
In        9.92702286219340   29.64338688462310   10.70614940330424
P         8.97004001394886   29.68468522566755    8.47191701275900
P        10.74077457427292   27.33423907381923   10.53246978531724
In        7.54335644559145   24.81540959421683   13.96498051061614
P        10.94892939505606   25.29677047769727   15.84675234096059
In       13.99451839686855    4.64284046385341    5.34684988429046
P        13.27795902524578    4.80434649693069    3.03580855226407
In       13.07446120514320    6.69394671820665   10.23034729057449
In       11.41558504193379    4.42443172853791    8.35532714717640
P        12.13681764805330    6.75355312770751    7.92579143987802
P        14.58263625467285    4.78920323624133   10.14795662513167
In       13.54174309959335    4.57006208372498   15.64142562186711
In       12.14870343359820    2.17698108291840   12.81190748632622
P        12.35308169683369    4.50408566838436   13.49169039291388
In       12.16539930366939    6.99704480090941    2.96693359136029
In       13.32854556442749    9.36518244417830    5.08974776125753
In       13.01785264947741   13.88527733868464    4.91589804364391
In       11.86043910606901   11.51755408025330    2.84897170007038
P        13.01018855336012    9.31740109362835    2.64281516288943
P        12.62007488757718   13.86203868735163    2.47524070721741
P        14.07078850328978   11.70674483915929    5.45635737536404
P        14.18679025579255    7.08482125825885    5.60546565979262
In       11.38923854819327    9.09626447567760    8.32333020470893
In       13.06841183599371   11.43415053671857   10.25272081329480
In       12.97139900763769   16.01060852806433   10.16249832844593
In       11.35314529673512   13.69036039451118    8.29296588605259
P        12.24563652088765   11.40247167947369    7.92109112235069
P        12.22293356049583   15.96578843197055    7.80523877941731
P        13.84673809253014   13.75368413026712   10.73647810001452
P        13.72277453505921    9.06596455567649   10.62827827819289
In       11.45330299610184    6.81679914947635   13.65282993629457
In       13.30879394408061    9.14341095762284   15.57228782320172
In       13.38904623795343   13.81079905646569   15.60025075855912
In       11.44747609172845   11.46342081218414   13.67608045024940
P        12.26880925921938    9.14505375089840   13.32078784104998
P        12.32623836563918   13.77268329399529   13.35812957059607
P        14.15883544438363   11.46186686083524   15.85901366434860
P        14.34264992018623    6.88701747056633   15.61274661610146
In       11.64095023218953   16.14656677894190    2.68722505010015
In       12.99756675410141   18.45595698614363    4.75079745079435
In       12.96959070697366   23.10776356439214    4.86061417598255
In       11.53358803390636   20.67297184976683    2.66483985706916
P        12.59099897956674   18.43235290993765    2.30507798181767
P        12.30688985412688   23.02314229866656    2.47153316137374
P        13.79309913107630   20.77498255489554    5.15387573627768
P        13.90652456844671   16.17918991083528    5.16726268167393
In       11.30094032992786   18.23764977399652    8.16298315729164
In       13.00484884787043   20.42862003919240    9.98842393084051
In       13.14637323485881   25.00801758542465    9.89822500654160
In       11.28117660876621   22.84074250796013    8.15871787239216
P        12.09668970685497   20.54194260049069    7.68795034511007
P        12.08057821964523   25.14172429237677    7.66601458835473
P        13.92204803228084   22.70179524654171   10.37535948290641
P        14.05991572026248   18.22413094008133   10.40134907675048
In       11.47519340123399   16.09993862194094   13.62793685254929
In       13.43572107920495   18.42847715827645   15.40110152211844
In       13.48106617533061   23.09513258318485   15.31419763898524
In       11.48467248190834   20.69337600449696   13.54368671337633
P        12.34915657590546   18.38614188540998   13.17034988338646
P        12.28590579488258   23.01668027728685   13.14317669685368
P        14.26713309815443   20.76263335551336   15.52599481910595
P        14.29310998275713   16.12005796367379   15.70225067308345
In       11.76527674556110   25.40926801053536    2.75880872175947
P        14.71431106959868   24.80358311643936    4.78713736068837
In       11.40060024017921   27.47748989351020    8.15333939347076
In       13.75927184221286   29.28764027084268   10.42038659442130
P        12.64317457058786   29.58922685814089    8.29238447011712
P        14.59321343422558   27.00000295060789   10.11638286192794
In       11.60809229917411   25.38928101485051   13.49408569829467
P        13.71690417858413   26.58940670068248   13.30529210902614
P        16.66224146357377    7.51405400171774    8.60609407887383
In       15.71960406454181    7.47009082124208    3.70558780595671
In       17.86334743278141   10.80920385621701    5.41517950138549
In       17.63560788679402   15.11722050080684    4.66145120527375
In       15.29055748822817   11.92084349419133    3.30170078560386
P        16.52772914262566    9.79236598583149    3.62759493036012
P        16.30844437010737   14.13459756424172    2.81970079199051
P        17.44841657660192   13.11296502039280    6.07371053117965
In       14.81501365032433    9.07856594182144    8.39803901238723
In       17.06736640588180   11.34456954628146   10.13353776189419
In       17.59831734289262   15.69878755556002    9.18839164675999
In       14.85042289494115   13.79261650333605    8.47561422668608
P        15.61415573570899   11.43380410026915    8.14561209753082
P        15.89234332948609   15.79491496310409    7.37873509989211
P        17.60032675711508   13.67468115318563   10.55732396885706
In       15.49299164107499    7.09751576158266   13.46435222443439
In       17.30310005322587   13.84328030228387   15.09504714275713
In       14.82534232010890   11.50448466325104   13.47939740540961
P        16.10314702717739    9.42596452970614   13.21898612474985
P        15.75984978287087   13.80282071556400   13.21474059098142
In       14.97331951163802   16.22345899702229    2.92531260638766
In       17.96235626761637   18.75616008106505    3.44094102912486
In       15.01088974805342   20.98826306337856    3.01496111012989
P        15.61255348215409   18.61413101914093    2.70278289182322
P        17.14048578865839   17.45250835527750    5.33669957018186
In       14.97040234889610   18.02514701708687    8.10781385895415
In       17.54465456456411   20.00030320138057    9.01008925169057
In       17.23898069709718   24.45559143180420    9.85464311602379
In       14.96889349629313   22.43422521963596    8.14026655958334
P        15.79811778579812   20.24180163465529    7.27332403709704
P        16.03366628095961   24.64822170966043    7.72143467635226
P        17.58250304173218   22.08822355714661   10.28643131036797
P        17.55691014430698   17.89713324816060   10.26364335262309
In       14.81878313671224   16.11161733143286   13.28788699275763
In       17.33571821429841   18.46539325734588   14.88719594092456
In       14.81902225583540   20.64983337688837   13.11630902826925
P        15.83126584418103   18.37258118606843   12.97816431498276
P        15.78545577508322   22.91815032238374   12.94706104392732
In       15.27684943031350   26.99422359276449    7.75945510878319
In       17.23946913993449   23.13973094061065   14.84869623883718
