250
 energy: -17.992096000630 gnorm: 0.000101364921 xtb: 6.4.1 (afa7bdf)
In        3.89189019104270    7.53983579421447   11.08091154434638
P         2.63843607039599    7.77926689319423    8.99111681792959
P         4.98690700672938    5.36004394655052   11.51478119355375
In        5.28731165397729    5.76861896961664   16.99371911248107
P         4.89447527675038    5.58767401267429   14.56131722865987
P         6.72723335503610    3.97179816073565   17.91730702543166
In        6.52731061368437    4.80372115636345   23.32586145162434
P         5.65336616599419    4.33307770250874   21.10573389098271
In        4.43816485059449    9.62670439476324    5.18471422210712
In        4.92529597015681   14.02396928828277    4.72994807466566
P         5.73165313181241   11.72773429603537    5.17512075195454
P         4.90609874722740    7.36888425153700    5.88881234825125
In        1.85978723848333    9.93408301078494    8.19532774165160
In        3.73002366313890   12.04432226051038   10.53107655538868
In        3.85281703476430   16.51492801937668   10.17715340136688
In        2.21668815136033   14.26983525294841    7.63627391816363
P         3.14470550763703   12.03538092306980    8.11826185525251
P         3.34493066678984   16.46433606764257    7.74938356997864
P         4.75050203918242   14.29640796495280   10.89631771003986
P         4.74583317497089    9.87915734290567   11.28192467298676
In        3.52718294724074    7.64021476905022   14.56488166100519
In        4.34138428018490   10.18671814392103   16.64616640585884
In        3.94484725351366   14.72746195520817   16.20685749629036
In        3.05684276848840   12.20025655623787   14.04493355185261
P         4.23241276904290   10.00124468233864   14.16164466957120
P         3.99887975564920   14.49243225957449   13.72417445988222
P         5.10535429218027   12.56590473757820   16.67641094635409
P         5.78690070161190    8.21487992081667   17.18474717435048
In        4.02192408567771    6.03413576515713   20.52540425076022
In        5.50850357345089    8.79137229182503   22.52391216108186
In        4.14392190014127   13.03016426458041   22.15321970822428
In        3.12088156561877   10.34286609229126   20.11823604846273
P         4.64913980435663    8.39637101377843   20.22493658569856
P         3.49160773539597   12.76978167558608   19.77251082940353
P         5.81139618104405   11.25372639964871   22.62476808523375
P         7.25613196529623    7.14640817313145   23.17619490477790
P         4.01852468113965   15.32648323470017   25.28101244217182
In        5.11997478164149   18.58862459860383    4.52858721961729
P         6.40060945049740   20.59239549629347    4.87356578030442
P         5.81297721822163   16.29942769446232    5.13437063765942
In        2.69936721597381   18.85550136337127    7.79049253005090
In        4.81118731281550   21.14572612697753    9.98121390533638
In        6.19329759683080   25.42745540153832    9.62245680834331
In        4.45116926794230   23.25984576616607    6.87621881210681
P         3.90081928231980   21.00683707774155    7.68817415151351
P         5.87263925241035   25.20178475655463    7.20601819982948
P         6.36380803385278   23.06236642441793   10.38809886766446
P         4.96948637395525   18.71401501975163   10.55451202872862
In        2.96068506882483   16.75281312413707   13.59008410966017
In        4.00633288171892   19.14217983582724   15.82079125431494
In        4.58813903953676   23.67014410349021   15.34893183105095
In        3.15148320089812   21.24269201186932   13.18915856420652
P         4.11492788289602   18.94817632173901   13.33799236113911
P         4.37833700837736   23.37915939493643   12.89157117623326
P         5.12702410303699   21.35504503347391   16.12299541691551
P         5.05849594032645   16.95564196222049   16.41270229103251
In        2.50048022593950   15.03905527524440   19.65774023719190
In        4.09196079428306   17.54568487367904   21.73346526447486
In        3.97133122261628   21.85291475501663   21.49059725918075
In        2.22071666589669   19.51287586041792   19.11127681545694
P         3.36759183816238   17.34102600186586   19.36767976788357
P         3.41259428943772   21.67535382923586   19.07517873614011
P         5.14565806849039   19.76624999839161   22.16450995837887
P         5.07390421127898   15.32728595722441   22.27805640898822
In        3.33304845333989   17.62241429607310   25.42011049345336
P         3.98933693231047   19.91205112987820   25.12955267407079
P         6.50370448575381   17.30084982847872   27.77805301924486
In        6.67619098050051   29.27503684304864    9.28683977724410
P         7.72675674112032   27.28515936708292   10.22864480178148
In        3.52465066803951   25.60615171339198   12.27751214334765
In        4.72252407816106   27.98016999278804   15.16063034900310
P         4.61711881676056   27.72326886277847   12.74654952847894
P         5.73115532245206   25.83465811311565   15.82506373694478
In        2.17586014811871   23.71211771765995   18.56264616522012
P         4.82414870595067   24.13902478435807   21.74125120147690
In        7.35511783604766    7.65691240390303   11.16909790363631
In        5.46150210651972    5.12171057806650    9.13011838001009
P         6.37037091232807    7.40182828100137    8.90730111460054
P         8.38680853375852    5.53860091039333   11.79935926669246
In       10.18569864745722    2.19189742730434   17.67735813626160
In        8.58075953892376    6.51120506941680   17.31140103367818
In        7.67461261460696    3.67389010935940   15.66161238184606
P         9.26973316696532    1.80824783112892   15.45708963479615
P         8.14379047837437    6.01163777782797   14.91955125263078
P        10.19267805391645    4.66580160867254   17.75355764202216
In       10.47108589691648    5.77373600351100   22.65101552575820
In        9.18996593209919    2.54344293886544   21.40331929455466
P         9.23208931235682    4.87500676412993   20.70058671127920
P        12.84282003081179    5.17510434966627   22.48299981690935
In        9.95937374437316    9.72536573745183    5.13486805994813
In        8.06476803145156   13.97268145371334    5.64311880781303
In        7.07015988998816   11.50626801276189    3.11845039093786
P         7.86689327702487   13.82412352411035    3.17503688685567
P         9.63060938974503   12.07859572438574    5.63867125584686
P         7.87905337830378    8.60661069718163    5.57569346198610
In        5.44697574084352    9.70100193119292    8.90353896319436
In        7.12227888316728   12.05647434004806   10.88990829402392
In        7.44657183655571   16.17023471640764   10.71003751150500
In        5.62756844506399   14.14776566996847    8.57332012571767
P         6.59034046625334   11.86271892833499    8.47066515652553
P         6.98887460732587   16.19854101396423    8.28033547325448
P         8.57110625289531   14.03994578324031   11.35546402432264
P         8.33002174131589    9.94509133308914   11.39171878871431
In        6.82420472042338    8.13627729120647   14.92880406302107
In        7.74903724798908   10.72650531866074   16.73051409501376
In        7.43475841983934   14.75291317628778   16.55191649072282
In        6.28869525580828   12.44272022057308   14.49480475316398
P         7.69561146970685   10.38438546869950   14.25125007536695
P         7.56535173432269   14.54766544307310   14.06937905075448
P         8.96164457088596   12.86912825929847   17.12458068681207
P         9.34561537445344    8.87397415790808   17.13889116010194
In        7.78627325074958    6.89758684196306   20.77481238659789
In        8.83038195532359    9.88056031480972   22.14794968639766
In        8.10661083617186   13.68456123426304   21.94451940099210
In        6.30864372747709   11.15504894308813   20.20550021830841
P         7.86842360732357    9.24012516141981   19.95336265389384
P         7.34532770301583   13.32786608890472   19.62294722217932
P         9.94228730554161   12.08519099039303   22.43810995001668
P        10.64206330458791    8.21792761492717   22.39174722506262
In        8.59235708789514    9.34662064935072   26.27658359531154
In        9.43537568963350   15.46219571890417   27.52499509387050
In        7.66809907481574   13.60125065828778   25.43143197271841
P         8.96512394714783   11.53775513147807   25.36482113129117
P         9.08481177548561   15.61927536833902   25.04670896304962
P        10.94245601845595   13.53111238033580   27.32812655380600
In        7.44015668335262   16.25928615871883    3.25783235079785
In        9.19881291390428   18.45285068400063    5.71906570343056
In       10.00278902716780   21.75845030084270    4.23161449596694
P         8.78147040872829   18.30982120713271    3.31780269810056
P        10.64493854403952   20.42679659167003    6.13573163630010
P         9.50882727679213   15.98836031313335    5.87796529751560
In        5.92956182310995   18.43700502992492    8.28227819588164
In        7.85360668311473   20.15711891203028   10.69414709652728
In        9.40105077018938   24.47558860959642   10.73863437645435
In        7.77003084465090   22.75045693321555    8.36108401795532
P         7.57657542283171   20.28327477284112    8.24231528594741
P         9.69408668429696   24.34237118325414    8.27312775571019
P         9.22737826421495   22.09504891276795   11.47099495340911
P         9.00445849692080   18.03695137813191   11.26173015957815
In        6.33691589096907   16.72894800687034   14.29493501833971
In        7.43107300320736   19.13935516371435   16.39363956056581
In        7.76462790857334   23.24710845820189   16.07781358875753
In        6.39218011994025   20.99608051729897   14.01370648363278
P         7.65159539924241   18.82185471551738   13.92212259268939
P         7.42433819741429   23.22262196998626   13.61823826359296
P         8.83459777662211   21.14532286055602   16.84115273833246
P         8.51438903691765   16.96451577725697   16.90991906070233
In        5.76460254023450   15.21780128284038   19.90866521286963
In        7.61707720576126   17.57451889202705   21.86350706196229
In        7.65398505423782   21.97655730064332   21.64154630257400
In        5.87056264383446   19.66735563205448   19.79483738955998
P         6.84449410209810   17.40959329775722   19.51012099122070
P         6.88056597708053   21.87370576105060   19.28675002308839
P         8.68506904585801   19.79008456404353   22.29043169874593
P         9.36264813200585   15.82186328983099   22.18915850584176
In        7.31524884459537   17.34204698300472   25.49527373523376
In        9.44961636900516   19.50496893154801   27.07373544220857
In        7.12493509460730   22.08097787310830   25.38346919890273
P         7.87321225191398   19.74977043303037   25.18788642491230
P         6.94837924853997   24.40723046735910   24.81088589790488
P        10.78223311790079   17.53777133161509   27.69876934229188
In        9.34432435641722   26.80607055509065    8.39827127784839
In       11.10561062354556   28.91669369228784   10.88067297965738
P        11.02996111060378   28.59148753219084    8.47996064507637
P        10.69077939904090   26.53012028480639   11.36476822598246
In        7.04173690086947   25.68221032024770   13.72867818937276
In        9.22833914431704   27.79100873103630   15.73757096395312
In        7.79609888257016   29.93563122084070   13.20836427313792
P         8.56252580223724   27.61895730667478   13.34932389655251
P         7.93983101611794   29.06539902740701   17.36111242304207
P         8.87430612105532   25.43904900441537   16.42738685295726
In        5.79031932309877   24.10034110247260   19.49591553880301
In        7.32716870322574   26.63531206394473   21.11483279587110
P         6.69043555115522   26.28942395364145   18.77006589738698
P         8.14111391236690   24.40985328249538   21.82290411333362
In       11.63124729129735    6.83438784465207    9.95716162788823
P         9.97582422777335    7.51452008559096    8.32596690881526
In       13.34876404793436    7.09961754568726   14.87656979124540
In       11.01441391332985    4.64193137025736   15.41305718226036
P        11.21825329917969    6.47933955180750   13.75483909774819
In       14.28854938266125    7.71257267966076   19.81372191542377
In       12.96968111742748    4.40553050535990   20.19241191007834
P        12.37640903380851    6.42265334853704   18.90912135117217
In       14.44046795742230   15.06263053673376    7.08751368097846
In        8.97371125940630    9.65016286695817    9.01052852631842
In       11.88353076559950   10.58433417651676   10.36107227369665
In       12.42761350512369   14.61714604226167   10.36226344993115
In        9.54068931359009   13.50322978568692    9.13766103846094
P        10.64959533418930   11.38956240051756    8.38578700934751
P        11.11263323433604   15.26674736261964    8.34648442272436
P        11.77641498285404   12.64515636822534   11.71840111438546
P        11.46178716993810    8.54276431684900   11.70104980292588
In       10.17974564887932    8.49423512081402   14.83520773168529
In       12.83121241843832   10.56692032601798   15.13942678946060
In       12.68900046887296   14.59121684201120   15.20874929528613
In       10.05195529907778   12.52706156531995   14.92984555570315
P        10.85886605773264   10.55841307249833   13.58076596793088
P        10.74381406347260   14.55716199687465   13.62760579371848
P        12.90804975082275   12.55757139256688   16.59450012560097
P        12.69284865085564    8.62272558515677   16.69815140629317
In       11.01232185315128    8.24793532550444   19.95444633759825
In       13.49550296029131   11.20270511758423   20.14868070097337
In       13.03746400830876   15.03504107448753   20.14988593505651
In       10.49040818389233   12.20780630448346   20.02445721599009
P        11.60692004856874   10.35940075346503   18.73800799688571
P        11.21876590601360   14.19332551717474   18.66584159847030
P        13.03327164691294   13.09347071052455   21.69617991409901
P        13.68110845782812    9.22830685267201   21.63268232815692
In       12.84416721212635    9.24960099770668   25.42395383182490
In       12.36675188364902   12.88652743520064   25.44754033684789
P        12.90388967278617   11.06900164558806   23.81861500688533
P        12.46541120504221   14.88392121517491   24.01169844445056
In       11.17164414894401   15.58526512777161    4.14049384655112
In       14.48057169268043   18.77390924434355    6.01093540083288
P        13.09569539675566   17.08455603112017    7.05463280238838
In       10.08514249539344   17.42777587282349    9.10745298464047
In       12.83524505951331   18.40270957589584   10.64363422417913
In       13.90196632202734   22.04841792144030   10.89020881254070
In       10.68212750731690   21.26558199841181    9.63145468401699
P        11.72027684878358   19.25561288227945    8.58827936392439
P        12.19637046850928   23.21660251273761    9.52105954476299
P        12.58386777561353   20.36489348267695   12.14326708214986
P        11.83668334548281   16.49503615443788   11.87919600464772
In        9.83271797474881   16.58424364223868   14.83513496640384
In       12.71751592169478   18.37162663729934   15.50373977844436
In       12.68925172924591   22.59360026573648   15.72232348485277
In       10.14274082079926   20.56931457133842   14.81594065157951
P        10.99931678485655   18.49155710617017   13.67747294241927
P        11.19058918962761   22.55867409152387   13.73219413687602
P        12.57845746656123   20.41679391505031   16.87106924839042
P        12.21499640934026   16.35370033050642   16.87831981721575
In        9.83378601322527   15.96112286871760   19.77291154963308
In       12.70781937350916   18.64864867879920   20.02698840293310
In       11.59222738449911   22.60454779106201   21.36837251431985
In        9.45744520662221   19.76584954692693   19.93944822027347
P        10.72309902188316   18.03401093547705   18.66998524835186
P        10.27259631411687   22.04641167645783   19.35790581171293
P        13.22280977138134   20.96372733028909   20.62657273914986
P        12.60843808346046   16.88963240969883   21.73170449795035
In       12.11912818997911   16.48450281623294   25.88128958658790
In       12.06405425078444   19.93969775511921   24.25217006405692
P        10.69853089794911   17.95464262847560   24.47581192630561
In       12.37049022277021   25.66762276777924    9.75728838195210
P        14.54435986689128   23.81433084526885   12.42477473816532
In       10.25259687689275   24.73615871161534   14.48824676482814
In       13.00662239872380   26.18352378192695   16.36297769939591
P        12.04191554080680   26.38746147629195   14.14384152624471
P        11.96126655974116   24.24091294330992   17.39791482752275
In        9.16434971323567   24.28213610671258   19.56195986626091
P        10.51597841975302   26.30056964426218   19.79963533511255
