28
 energy: -1.723887712111 gnorm: 0.000762455261 xtb: 6.4.1 (afa7bdf)
In        3.88175359125589    6.95863913519383    4.30249004120882
P         2.35756801418371    6.81975775838227    2.40019204023274
P         3.71783893508452    4.87876741273504    5.54905015419833
In        3.45755617349659    6.53417815594883    9.18949337078672
In       -0.12256565443506    5.71749361166773    6.36319993542042
P         1.60631951971909    6.88173689765295    7.61641933155655
In        0.62647926321806    8.45874646561175    2.83418537623789
In        3.44696244014086   10.54213366046985    4.05986765241208
In        3.34574903783030   14.26090056706113    3.97306863272130
In        0.32988601197936   12.52061893005304    2.71003944592287
P         1.74010961391219   10.56777630819835    2.28037186216527
P         1.42527431061299   14.70042306044763    2.47867338603842
P         2.51629486333398   12.41478238568473    5.40916144319321
P         2.74768661183816    8.72777261906245    5.60316031243445
In        0.47560685842744    8.77789889073174    8.72852437534270
In        3.55219665246966   10.75927962625035    8.46457810060996
In        3.58144038083392   14.34398939085864    8.35126809337622
In        0.24360207322294   12.52407236572008    8.37859482822561
P         1.36190278139183   10.59473523471964    7.27529828156964
P         1.39161144318063   14.36065966474420    7.15006739894415
P         3.32109460152121   12.60694742441135   10.05670352281932
P         4.22078866367696    8.76671245847050    9.71843590806562
In       -0.02671266908630   16.43620107640535    3.34020280521312
In        3.87470054007140   17.87331778057191    4.06297829239678
P         2.79856346638909   16.19817431187956    5.43307107016467
In        0.55858979222294   16.29879923968955    8.45156797604212
P         1.59068748359099   18.34572169449244    7.71020711799226
P         4.52468019991709   16.45684387288395    9.07768924471524
