18
 energy: -1.163537733987 gnorm: 0.000396598301 xtb: 6.4.1 (afa7bdf)
In        3.66434475242195    2.10118235142737    4.69017783632652
In        3.91790578423937    6.07688065995292    3.99583165419252
P         2.60551273230223    6.24734738023444    1.93458871225992
P         5.17910577663753    3.97255037031525    4.35085601968599
In        1.72194141878064    8.50749196169520    1.81543699705452
In        4.15799455416172   10.82478701479184    4.16773987882332
P         2.68649880831649   10.70148606520630    2.20868731172280
P         5.51982131469663   12.86822873932395    4.24146517849868
P         4.73543707440146    8.40889417566854    4.24842530128325
In        7.38360038131778    6.35995506712693    3.54941897920847
In        5.62566284759208    3.84140854058915    1.91684774477391
P         7.75098376108981    2.66354234168794    1.89067065739367
P         6.11747223788773    6.22037254175254    1.44707217030424
In        5.13958053060432    8.47327532703787    1.80245305612886
In        7.52265170759436   10.16461655357209    3.92038564153531
In        5.84813880576813   12.90856257919285    1.83476699511825
P         6.49418418183344   10.54862261716517    1.72386326029789
P         7.74766083034032    8.10811571326244    5.21549260539333
