8
 energy: -0.378227057773 gnorm: 0.000764357181 xtb: 6.4.1 (afa7bdf)
In        3.20782427103776    3.24711699253878    2.26871142066614
In        0.26930281010495    3.24748255683124    5.20776041105583
P         1.50488607710218    4.48410392308411    3.50538623029415
P         4.20028570782536    4.24073177126614    6.20031581153952
In        0.26929595408938    6.18543878788164    2.26906557311532
In        2.95471474788320    5.93522003186143    4.95593403174355
P         1.26366088825015    7.17825247535684    6.19974309863114
P         4.20021954370706    7.17876346117977    3.26324342295425
