436
 energy: -29.903044605586 gnorm: 0.000422851493 xtb: 6.4.1 (afa7bdf)
P         5.99145433537015    5.55316879949594   15.49080640390252
In        4.89130277042554    3.84951991276865   19.73389991322520
In        6.15765424235662    2.44251975683833   23.02909995783726
P         3.95735839143354    3.25398294192663   23.54255701584585
P         3.30222078430110    5.22623389740564   21.00484869515760
P         6.83984336292646    6.16766016537876   23.99742661077277
P         6.99871451135281    3.55829287214412   20.98801245088995
In        3.44940048815591    5.04033740578632   29.66241238608525
P         2.90409581624057    7.18251776763473   28.60423098331321
P         5.89226030105830    7.44930921881341   31.17816770522217
P         5.57151195892902    3.90490486727888   29.24298227184568
In        3.95702843798681   10.04598542873558   11.19858976132581
In        4.37383508446041    7.29211235478113   14.90789378035145
In        2.75947081332426   10.29565938569840   14.85653169524653
P         4.15969541919043    9.14758644569546   16.51105896345393
P         3.15230931030530   11.66330986950758   12.84663595967162
P         5.30701675659100   12.27798751808248   15.76940519112188
P         5.03367453479231    8.63314153445624   12.91225835047520
In        2.45729397122040    6.75143911654746   19.31442590219494
In        5.18972057596956    9.30669841853340   19.89388139555874
In        5.00905148997937    6.45232143542738   22.36488506720688
In        1.93852430285116    9.85275563517344   22.22032864232256
P         3.38437565820002    8.13992947598756   23.10902398462862
P         3.43430127995328   10.93227762885307   20.57004215532023
P         6.14177443992167    9.91448301843996   23.14669717495331
P         6.42482986050353    7.22995435204748   20.46789488683891
In        2.54244031683320    6.54653887797859   26.29111190612526
In        4.03225465271074   10.24574724073415   26.22357285222757
In        4.36596179187626    8.77891721425217   29.80460834760154
P         2.61107461587963   11.01101929277390   28.07203443667711
P         5.92463694851392   11.40024201267534   31.26659930843191
P         5.73532231218904    9.46582366027556   27.81728296086888
In        3.42917907056258   15.75488009202634   11.12360899779026
In        3.82467113047134   13.57724070961145   14.29574106100927
P         1.82036194536631   14.27150421252844   15.52630435512217
P         5.74087260526875   15.86533204570691   16.02480045680413
P         5.16971576891757   14.73387511593409   12.51272639234486
In        1.94669004738619   11.40740813733450   18.68983738231501
In        3.96327064835243   14.66091443100066   18.96214050300462
In        5.04685575483554   11.94680904572354   22.22066707272790
In        1.47200200418932   13.70579635818049   22.10963379155289
P         3.20603800091216   12.87684741524890   23.58204493412412
P         2.04231809663668   15.34020173854140   20.34753539054114
P         4.43789261973853   15.91070181633373   23.43016120581873
P         5.66284181644181   13.52542190587374   20.35718701533134
In        0.47120485690620   11.83523351521806   27.25001988130325
In        3.60322345174394   13.98227221293212   26.97564678778883
In        4.12405055882612   12.08292766177038   29.73463732174010
P         2.73500785440925   15.00170131698804   29.01952608398066
P         6.40470063192598   15.14594252161198   30.98490305557338
P         5.65100876235555   12.96362847408585   27.96941791480529
In        4.20810951865970   17.15455487780698   14.62169327981039
P         2.71496010597497   18.33953983820564   16.13376889685046
P         5.62189342183869   20.56639772668374   15.89865785525022
P         5.90074216563389   17.92613885603499   12.98745196675101
In        0.45872781297884   16.68162850265877   19.06097174364751
In        2.93264386331833   20.62866087048990   20.40390130649830
In        2.75736224885200   17.04693939904784   22.04442287527971
P         0.79812950875257   18.14647348751698   23.00008253659402
P         4.32321656564433   19.91010391822566   24.23905520390665
P         4.16720328114259   18.53429559413978   20.62046789547896
In        2.58586269946053   17.68987107520303   26.63935581653445
In        4.85720761143937   16.18848282663934   29.40340359921800
P         4.93863054325389   17.55354567821909   27.29621184965410
In        9.68593629405348    4.28299615712265   11.60171106412027
In       10.86073295958765    2.02457533451684   15.26862127691296
In        8.30029599124785    4.93612762174075   14.96644818037531
P         9.78726946176685    3.78875235832424   16.54206081123051
P         8.77630815607685    6.19503913424085   12.87334107292993
P        10.70761845585366    7.06923792510172   15.98701382043180
P        11.30533416485441    3.31388413589685   13.20400126929042
In        8.43403834624483    2.11966277758327   19.63702971586561
In       11.51031184066064    4.42764565267645   19.49676658353343
In       11.30326586158955    1.65694785547351   22.40707873763360
In        8.36775316095469    5.19457522792734   22.30677021894567
P         9.83111366509828    3.41272100914332   23.18034747740756
P         9.69431681006541    5.91598670892227   20.29637768377849
P        12.40719222941536    5.38396557094285   23.60458517000582
P        12.68611689797328    2.50321593613386   20.53449207186983
In        6.32491908246712    3.20112702929983   27.06083095101453
In        9.66705984499962    5.22137560934430   26.47016662649019
In       10.19462933880902    3.15158138528910   29.81285507163349
In        7.10905490983597    5.43472949317147   30.46169386509593
P         9.01517674502765    4.32241443429793   31.57715708017932
P         8.29446980183810    6.07082259861296   28.33443382746184
P        11.79125915925674    6.19837729699470   31.21398254488846
P        11.36008360895423    4.07570902978682   27.83954278404081
P        10.15988412609037   11.92297879978545    7.47583650874659
In        6.66558681726533    7.06146833386755   11.92628141266622
In        8.84826195437054   10.03733656631275   10.77150724513049
In        9.33129231715991    8.19716936590068   14.28377066300244
In        6.06382088991116   10.53588278463788   14.18501245942131
P         7.29658196205204    8.85687128536764   15.50661358218882
P         7.57656424161466   11.39945805630749   12.38339393024654
P        10.98665993592295   10.75385472448124   15.65425831608721
P        10.55760721477291    9.06060555773878   12.26442763346494
In        7.86555079769859    6.32239347562454   18.69881644219842
In        9.79363333432227    9.48616193387148   18.72573980631945
In       11.26215284152951    6.87859177478608   22.00753498189214
In        7.89331703761933    8.61017146839195   21.98016595882289
P         9.65426278815154    7.90979659739209   23.57864092695223
P         8.25132258909370   10.49551019043199   20.36726421456891
P         9.79992680775442   11.15890054254296   23.70845512768278
P        11.56761684474920    8.53247654599116   20.15412897422049
In        6.15645575362190    7.03705509612080   27.53278796854660
In        9.23407366472402    8.88440997545253   26.93290337484151
In        9.96355271322236    7.15028049855491   29.86176871038634
In        7.32321803288464   10.51116433407598   29.42527601300512
P         8.67057239596870    9.00170020942405   30.82157637450329
P         8.80031696242497   11.25880222128106   27.52132990502574
P        11.84749875334418   10.02067053480257   30.98228708779526
P        11.33805376223970    8.08167020951510   27.99389101184258
In        9.97883148984021    8.63452914169783   34.38862287956117
P         7.65183012382204   15.21206589660900    7.90007850023392
P        12.09003418701293   15.49071098427672    7.71052171516240
In        6.32651238373946   13.07700157162079   11.08569504876708
In       10.06384531221125   14.09851184055616   10.99141228855012
In        9.45008523987876   11.77133384423329   14.01035981671992
In        7.07289947996476   15.01092994704799   14.13446944286992
P         8.35064127893428   13.39772789569141   15.49376129006331
P         8.83243521180194   15.63454956373357   12.45468096521728
P        11.21628356876860   14.88125333365201   15.73783799258899
P        11.22907511155974   12.40603252106736   12.35243108275138
In        6.90891804869484   11.96149230561125   18.88210135266231
In        8.03162984924499   15.08190819216901   18.84949266879608
In        8.24266409498220   12.27064220608591   22.14976484529362
In        6.16151612020527   15.60704311572125   21.68253648084536
P         7.83741088558543   14.51650529212231   23.10508467670499
P         7.40019452721177   17.13240546464663   20.10377724507272
P        10.74776841562663   16.19587498353557   22.80043764284264
P         9.34817923292693   13.59158123610619   20.32192609099557
In        7.13349776122193   12.37866142990811   26.07693355640522
In       10.07068225483466   14.12922802240056   25.93583087485032
In       10.63291598243280   11.32689221237997   29.26258609672544
In        7.58792515204982   13.65674658903185   29.41934703670823
P         9.24784224938092   12.56506918994540   30.89948658124603
P         8.44125747156044   15.05155594675388   27.54577625025622
P         9.75128622370778   16.01076856104494   30.64883345268333
P        11.54927936814656   12.84853908141039   27.46750473535610
In        8.30578350744788   13.60209492721881   34.39942659166311
In        7.58335572034314   17.40357624569263   11.29267554510456
In        9.88368101765009   20.57686335151044   11.72149965502929
In       10.05176430895691   16.60749833223980   14.40688929919259
In        7.18509617622023   19.01600193622976   14.81770315242272
P         8.62830398531395   17.56108865049440   16.18767405768996
P         7.99481450844751   20.71851932483141   13.22509485635324
P         9.44377502045439   21.78747370657846   16.18020300558861
P        10.66235671335030   18.65892049396424   13.08760038039365
In        5.72786195799912   18.30638254635006   18.74182523786468
In        8.84037377436228   20.54069082175156   19.57890959091107
In        9.05146646280415   17.71920761860205   21.88212672304428
In        5.74915763300709   18.88019575083276   22.54317974413388
P         7.51236865207919   17.72190955334651   23.84473879178810
P         7.15922859595695   20.48375084611800   21.31831240548826
P        10.66631955663625   20.63092487233668   23.12346886693377
P        10.36267961332216   18.63086947710953   19.91844879989275
In        6.40397824592489   15.79508544222034   26.34418136656893
In        7.75865026057216   20.85933979697234   25.94048398293051
In        8.34638160085437   17.14096648568855   28.95057128216040
In        5.63057382396317   19.48543662539084   28.71298710012974
P         7.03404498123273   18.55773575554167   30.49302806045683
P         5.94773079932413   21.52957209456393   27.39780300559686
P         8.43143704331541   22.03648642257741   30.10912289157665
P         8.64855091026944   18.91324238169353   27.17932708609960
P        15.65017308598888    5.88943888856852    7.65508097104947
In       12.62035910999120    1.74708772851304   11.85075019645277
In       14.78265898641292    4.78171738161143   11.48754204050613
In       14.90219362284407    2.97446570082236   14.96458649400925
In       11.76401675249889    5.48172244605064   14.41269926197453
P        13.36060422341659    4.50894201652846   16.02169478767523
P        13.22462310546503    6.36255339686737   12.58349052970258
P        16.52047082166869    6.00069302132891   15.97610003229000
P        16.34003567503700    3.70538910279133   13.08736024794906
In       13.31779640800051    0.93213962012267   18.77910808285580
In       15.28157526125357    4.24229801499593   18.93246855565745
In       16.05596341329618    1.10912448537429   22.19265843937649
In       13.84924186409028    4.09798115303912   22.07954433630456
P        15.08503573325646    2.71989799715669   23.71921718104299
P        14.29280792239451    5.93687992116451   20.44402116908949
P        15.82775696548808    6.35648609183873   23.45412220515778
P        16.58922009311195    2.75642220033634   20.43073089155582
In       12.73985258887909    2.51792144734488   26.56971301629909
In       16.36312139540001    4.44270018859595   26.51641094355875
In       15.78391839133340    1.78568906522280   29.26304200004086
In       13.01549425324494    5.33298958409516   29.24503923583741
P        14.35099432224135    3.49445446210830   30.19444130164369
P        14.62119194978142    5.95449253095007   27.41400162864634
P        17.39385365904266    4.87578160435375   30.87935553323661
P        17.44029104388270    2.47130883432603   27.55789254009669
P        12.61823968969226    8.70180357248852    7.25976048245171
P        17.63561616924790    9.43477317237076    7.48432727331005
In       11.80241407053980    7.42351643009034   10.88502896023580
In       15.64685833062819    8.54938192714657   10.76066475565952
In       15.08631851031255    6.88842965422644   14.17647826605564
In       12.36014160194149    9.67124045927116   13.90286694943082
P        13.72991008238160    8.43193012566978   15.53430087925065
P        14.18967304494308    9.89724811207666   12.20454215369214
P        16.79606005289216    9.68704329349292   15.66165007117814
P        16.87857954941036    7.22644840563232   12.45124773541001
In       13.14830166108352    7.29089666952910   18.71941255980270
In       14.17151754292455   10.43414628632269   18.65262447779050
In       14.57940447679946    7.90150322026385   21.97228707934981
In       11.23394428956030   10.34885148847910   21.86211285561715
P        12.98326905246894    9.28216364121589   23.25403725199105
P        12.47212203904701   11.57734250225005   20.05817208171678
P        15.77033789837200   11.07138820150703   23.43844223286947
P        15.70981786132197    9.25165225395487   20.18245131812802
In       12.93965874766059    7.34787949660239   26.26131618837452
In       15.67136047192394    9.26010778914674   26.20363836235077
In       16.22368865168791    6.36944092707352   29.31337545124239
In       13.26667113684605    8.64192297346825   29.51107793738896
P        14.87167915834129    7.52604353988827   31.02371605874502
P        14.11584004094859   10.28638034804694   27.83829211553340
P        15.63744453285245   10.86303052112780   31.07774309122505
P        17.21100111795889    7.91887123101074   27.61090949762850
In       13.76107188538935    4.58054893724223   34.10448973937277
In       14.22609523319150    9.77540678392353   34.20161897306961
P        14.04864022595041   12.04845330808480   33.38956425348518
In       15.88605707242482   11.06679685739414    7.44354213867286
P        14.27299875839558   12.83113336523149    7.54271424738938
P        16.98480298937366   15.47487521414551    7.89057674517760
In       12.61611813971855   11.13310556699271   10.75092703032640
In       14.06824148844702   14.17020584059770   11.08481486199296
In       15.56754460147577   11.00090202773238   13.97212852043764
In       12.55201835654982   13.56576931307521   14.13148017361900
P        14.06409086501147   12.20068279358931   15.51525295272711
P        12.89426442968918   15.61230254232896   12.72701333991996
P        14.58940592182254   15.79491433704061   15.88765716023819
P        15.76652677626953   12.90716075841731   12.36429291357630
In       10.88569969006863   12.75528273460398   18.57475506470607
In       14.29973205910150   13.84850280881014   18.63364020331183
In       14.20150539726784   12.07810288176678   21.80710381068002
In       11.17927525680142   13.90861341156377   22.01254386796047
P        12.76595640882929   12.92045115807621   23.62687297508221
P        12.74740566782500   14.81107652835859   20.29231849836501
P        15.90673680323389   14.58804359395505   23.58058254069551
P        15.93577572017316   12.73432879830165   20.12853830143799
In       12.23635770519603   10.76410077316226   26.29735371567000
In       13.25374635832615   15.30418676252198   26.22041959975126
In       14.05742990407951   12.08077862811287   29.59786110868938
In       11.22078637149042   14.60334453667550   29.24455581046656
P        12.55154434053872   13.47864394423140   31.00424779253637
P        11.53631332967965   16.46630451608798   27.59216591118559
P        14.49644876253456   16.32695800901523   30.85327471646182
P        14.27159068268942   14.12100646987920   28.15340690173781
In       12.74920761269031   13.20560427098767   35.05625494261380
In       16.77838623275438   15.71192022424603   33.93394183109208
In       11.90168307300525   17.41049546980261   11.34566049333396
In       13.71669459640022   20.72555220950591   12.22971986734578
In       13.22011698943085   17.33043204861212   14.53518349172183
In       10.81420471645917   19.99364047036298   15.21276555707317
P        12.02449580009314   18.26184828341543   16.49927246760745
P        12.52940430049359   21.44881979281392   14.20080957201162
P        15.12730747736146   20.50620257292797   16.48026366356394
P        14.68384704966075   18.58697771160078   12.95696365739352
In       11.11318363293094   16.36372648985018   19.28032316157807
In       14.71176494736166   17.92679995584815   19.09998403339764
In       14.28313554805316   15.65709501731239   22.07761633765625
In       12.10533575650421   19.43933917467218   21.54617638812838
P        13.51414422506602   17.87245520559032   22.82755320308307
P        13.40140954910219   19.92444773594316   19.48989362431585
P        16.65883412674277   19.36065978585506   22.64190006722821
P        15.94940208661566   16.15631236584578   20.28163828356968
In       10.56915689855565   17.99922735208420   25.93224062789159
In       13.62574098279257   20.19585696347536   26.77930070291752
In       12.89958934160623   17.52272027702093   29.40987821188224
In        9.71692493207347   20.26459708064302   29.01458972546948
P        11.21857713126098   18.97686887465694   30.47697049371747
P        11.54743618851720   21.12799939179050   27.59648081725037
P        14.96814537892029   20.06657187806564   30.70167555074896
P        14.49031705908578   18.01104727979051   27.53441365981753
In       11.83468724355421   17.17853322202140   33.89508059153808
In       17.62337211073346    1.91975273601420   12.01031477985341
In       21.56734135942555    4.25485946797674   11.19247964011791
In       20.95622191216485    1.86644898476142   14.26306817977460
In       18.09851095483709    4.89003768917202   14.43628635774844
P        19.25353053132848    3.01015650837522   15.53770123006141
P        19.85506992342284    5.23047550780030   12.67531840927866
P        22.49375231653251    4.65349968224654   15.71512549517838
P        22.61832287908421    2.56343095467773   12.61419952609804
In       17.83425328851239    1.45023026982169   18.76379444322670
In       19.94461282752048    4.71110428615721   18.52296454039931
In       20.14229174842406    2.58694037876086   21.86881193307936
In       16.95991293693896    4.78961341510653   21.88805181605538
P        18.65535218202027    3.77522568505974   23.36599809069742
P        18.16684086255896    5.73006224211556   19.90449279071120
P        21.46772928754469    5.76118129924283   23.41497766211213
P        21.52850232566947    3.78343453866534   20.18745705615765
In       17.95815376010098    0.77478416666045   25.88197974026699
In       20.62046906632638    3.53129115832066   26.25188057616216
In       20.01518635972842    0.31899177512122   29.25659769392302
In       18.81691306634356    3.65683104543884   29.28431147437044
P        19.69881838641322    2.04305494571731   30.93773366437949
P        19.60415896182742    5.34230549601871   27.60649080195680
P        20.96813546808880    5.46007932262319   30.97693516429598
P        21.39093336371640    1.94513628112186   27.99334084449582
P        20.41782121477882    6.49500029562597    7.73075447048374
In       18.04820565272897    5.57338302942932   11.01160875002581
In       19.59432336344539    8.62352296516372   10.99605425369914
In       21.24476034028426    6.34680947442832   14.43000777748609
In       18.28789665517693    8.36800354151374   14.19761474095500
P        19.70378440753121    7.44406141279164   16.01363725769685
P        18.46702002776467   10.22568742983864   12.51503484243916
P        19.97668484044699   10.91678037743382   15.95866553387158
P        21.31232707084099    8.17185284871346   12.71557005392098
In       17.27736414404668    7.80932551539972   18.94773997351058
In       21.11187972251410    9.70472325423721   19.22622904680054
In       19.96089439101918    6.38758569069412   21.55252850736825
In       17.38178098994435   10.13319064943827   21.83245557667832
P        18.42233300916169    8.03137718175596   22.56223757452950
P        19.27110317002774   10.89528942680589   20.37098741827255
P        21.37542711703554    9.19871975102846   22.93965852787660
P        21.43661044120020    7.30126111620527   19.74598112275558
In       18.65413158283581    6.86609458288166   25.89429920692042
In       19.02815280959049   10.23606291501972   26.27822977684690
In       19.74829822031707    7.00639363293111   29.47974217831759
In       17.01637066480424    9.66158763210214   29.41516209681747
P        18.37581288404461    8.36634523642178   31.01478389794291
P        17.47886650543630   11.48468122515653   27.76697598856983
P        20.67185562980070   10.83273623435840   30.79595083095401
P        20.31713032747924    8.89883382589313   27.92178530854449
In       17.67496719516940    6.70022425884676   34.45007538168383
In       21.86483711658500    8.52280745701887   33.90602935426002
P        20.03138191500236   12.65402038030109    7.72331327108516
In       17.50960155462465   11.88567911506953   10.94473934644563
In       19.15940469437770   14.87041298611614   11.21203370512156
In       18.70828955008013   12.07221218540617   14.18306154467289
In       15.88493236353958   14.72156733743514   14.08169773255708
P        17.33298455340770   13.48649149356978   15.65207219120303
P        17.40667916700211   15.98833585844760   12.55282811370458
P        20.98927769078605   15.37964670784976   15.82478943175472
P        20.30036885697838   13.17954391501960   12.60901493463106
In       17.63811033363956   11.66983528799951   18.68751128359695
In       20.93076293597361   13.27636884140112   18.91030472944557
In       20.83402951677828   11.49262283043366   22.23484314622681
In       17.43467355640940   13.52661869515574   21.96774860089839
P        18.91074160282148   12.31909525196615   23.55322410598326
P        19.20584405987213   14.25674139334086   20.37600806317061
P        22.21700982441201   14.09073503880776   24.12304685647876
P        22.48889500366761   12.57826154555155   20.70503731324900
In       15.76390290708909   12.83356311027585   26.61934521644424
In       19.12246891242748   13.88660534203367   26.30901091338448
In       19.27949696588964   12.25195823681927   29.33810653914677
In       16.14593865754142   15.20062616176610   29.39588249271929
P        17.61688397882497   13.60749094898213   30.56245201753669
P        17.60847945946821   15.51300209000295   27.39983128653872
P        20.91997598407863   14.74851572248139   30.67295908393814
P        20.94845264068594   12.70087910191651   27.50141143895927
In       18.40624648628734   11.53785140059954   33.99324477738342
In       15.88825520733776   17.37129975083736   11.19427885931777
In       19.37270208744351   18.81699022846419   11.62192086159349
In       19.11896135964034   16.14065956743404   14.39289180927376
In       16.25983767632156   19.08699190462179   14.84098227116249
P        17.51146357780431   17.25406158375099   15.90142005539005
P        17.96962349921369   19.89854634328125   13.26647209058188
P        20.38170745447858   18.36941937971448   16.99702750162062
P        20.79069966799254   17.23930564369841   12.88036659840124
In       17.56999203145520   15.11370310856127   18.72603924251240
In       21.26383431851147   18.16495327888419   20.47121485798811
In       20.62085297856118   14.80757924070099   22.37472950359044
In       17.64631982901018   17.32960023610555   21.70685155639051
P        18.93776715064715   16.22535709738466   23.48258867521346
P        18.95350091373642   17.96089182664649   19.69624827294433
P        22.13820291352266   17.73007249152316   24.04711347528865
P        22.15956880079025   15.86682149641250   20.71553030087663
In       16.19377992305280   17.01840209963783   26.04818334947728
In       19.41592109763950   18.71933509775856   26.48291382944441
In       19.53941156708737   15.90347312779676   28.97276036902199
In       16.27815808782606   18.64099505714314   29.19980614142208
P        18.24481480028209   17.57507331058536   30.25524843988671
P        17.48150823526299   19.84491133543009   27.40571047868139
P        20.69984514933368   16.66184094646698   26.87715501884292
In       24.11940053805032    3.99534168516956   13.98933496318235
P        26.02228396843230    3.40965754824784   15.41459890035626
P        24.42050953695383    6.25025745874020   12.97985428844385
In       22.87685578876887    2.22131767271257   18.85863385933344
In       26.52892878007679    3.92054986735267   19.44954251589995
In       23.11838197515553    4.67122424098070   21.92724391562383
P        23.89394935279401    2.49503735291116   22.73003952011508
P        24.92833246187591    5.51604036584367   20.39742387429919
P        27.18267354614288    4.37611769798594   23.28988615349198
In       23.59410994676294    0.90141765236630   27.72444553653673
In       24.41835603951947    4.35202321988669   26.08355917503871
In       22.03133488504583    3.95567468148001   29.34943532922632
P        22.86199698920198    5.46985453676782   27.56899275465286
In       23.32612298707473    7.72513508615092   11.36572222808757
In       24.77349382300911    7.54811238715180   15.02069302678483
In       21.68334842848761    9.84044650958806   14.54622229478576
P        23.06404925989137    8.72368145388412   16.27253525752543
P        23.29837893354771   10.95081762483846   13.00210626729472
P        26.59684253270362   10.69928584295022   16.34454651188375
In       23.31254743440147    6.13737313302436   18.63100744507700
In       26.53245624426259    7.76201763274981   18.74575465112051
In       26.34430637416463    6.42915366915948   22.25500727745504
In       23.03733522213540    7.98238817334779   21.58658153244919
P        24.47855459183633    7.44341213596407   23.52748246811294
P        24.71712547917818    8.89815072139077   19.98001850223789
P        27.66218079740497    9.39721306890854   23.84737501127501
P        27.99373822590467    7.36878576560279   20.65688927260360
In       21.87513234933424    7.50335222852008   26.57829330302070
In       25.65697453978154    8.19125192901579   27.02532845227937
In       22.26586629606568    9.64148343223507   29.32634161424888
P        23.52452701828719    7.80239192170778   30.32770388372521
P        24.04987462123385    9.95930347437476   27.57913832308557
In       21.75967929165503   11.72240903040303   11.25157731909349
In       24.87142941206423   11.51878172892630   14.83135242195478
In       21.82764012020957   13.40851533676833   14.60014886727028
P        23.14842986251671   12.30811265180663   16.38007820481615
P        23.73680826851363   14.13435144975797   13.16237028029823
P        26.70183651828739   14.69795227254911   16.46269250658505
In       24.28497097980024   11.30710361027577   19.56072045472748
In       27.45389743185302   13.04059241579284   19.87001366279673
In       26.14878977853545    9.71314257980269   21.91343882961744
In       23.98479080917412   13.25312805700658   22.60233664998951
P        24.32101522868742   10.85750568534788   23.11268627938009
P        25.64215623657070   14.28110597643819   21.01703251999662
P        27.41004451762247   12.64969475985784   23.60558427601821
P        27.69649011387957   10.65193943139521   20.23054611506255
In       22.28748627455407   11.04971492902597   26.21859846701098
In       24.62301211863037   13.49507648649833   26.64142825807184
In       25.61925996897816   11.30211779323339   29.00181895471945
In       22.45865889144340   13.26256158912960   29.43158871757857
P        24.07044558728991   11.96226837556274   30.78643747304233
P        24.11360963526392   14.91446043310262   28.57661807911521
P        26.44500706062262   11.88098428459802   26.74975895027243
In       22.61579689912164   15.91225814906148   11.89037684089710
In       24.70965534047622   15.20583223465618   15.17088383580618
In       21.51928230723865   18.58445080229622   14.85792982541513
P        23.64107351689715   17.40266765414682   15.16077390750952
In       23.98605369357010   14.98091967827414   19.30231071593587
In       24.82908761536365   18.55151595153106   18.65239452086823
In       27.00444467501805   14.96260039411104   23.00510525449166
In       23.73336434639510   16.61032221173678   22.55862400360792
P        25.25904521014889   15.96010101154383   24.39720817295771
P        25.13625201453817   17.77373324989881   20.89661932020839
In       22.85918921453383   16.93470915808278   28.01817238137667
