134
 energy: -9.547195183557 gnorm: 0.000151821455 xtb: 6.4.1 (afa7bdf)
In        3.92787074678465   10.75144682459876    4.14610142981130
In        3.41390631856490   14.72924328065850    4.06995364136946
In        4.06658471055792   12.43140087892841    0.66189626612824
P         4.82779365940573   10.47015007754074    1.87879534368133
P         3.83216932258679   14.66625688259649    1.64068436714971
P         4.61785348920370   12.87494394423319    5.23606442352384
P         4.93541070225248    8.89256374582590    5.34225323692719
In        1.41315846572711    9.66092645519212    7.60725814494061
In        2.39309252165373   12.33033872069229   10.11281481669336
In        2.38379196786060   16.19380961095199    9.84394737129151
In        1.16548939544162   13.92780778868216    6.99500644766568
P         2.37550347977584   11.89781782177915    7.67070442528496
P         2.37637340598078   16.03927530435115    7.37101944764647
P         3.83309860812069   14.30815479960283   10.57535634126548
P         3.77249701571315   10.50618964877535   11.00685633364824
In        2.53304678822734   11.53097327940960   16.25149311398093
In        3.59938333304151   15.18592846155021   16.00718245335798
In        1.04604367323030   13.37836157383783   13.41175824142149
P         2.04442244005410   11.21890866887664   13.89028778691495
P         2.49213130949281   15.32684672550191   13.79230655642433
P         4.55992173556705   12.88258149792122   15.96665653112959
In        4.57792018700918   16.53052167208794    0.23088042831643
In        3.16582520877378   18.30353617974707    3.91027039312988
In        3.39023411988192   22.43818411581384    4.21559950983043
In        3.04900838494325   20.68720565331568    0.80596662356619
P         3.74667193982202   18.44643143414102    1.51810110471703
P         3.82750826573678   22.80319609579798    1.79523645036572
P         4.26623330718901   20.24117977955672    5.03611601401726
P         4.56978794788616   16.66057615917540    5.16519056148461
In        0.88242354512575   17.94920246681478    6.93857806520593
In        2.71049592819067   19.67447729987085    9.98526588660795
In        2.87933083348745   23.19522402959765   10.36451007935376
In        0.97393311723392   21.75770930632897    7.33548882549433
P         2.43125261515766   19.77933933077763    7.51987203039229
P         2.62532248976756   23.49218167872425    7.90826622540101
P         4.41124735795421   21.28214301093598   10.88377616685206
P         4.13479485148663   17.74953014153893   10.72991239038264
In        1.58205249684559   17.59245683830674   13.58879691198044
In        4.46881067250493   18.83361347668896   16.67005146224427
In        5.32700885854168   22.27214378889186   16.85296524885733
In        2.13419610681102   21.41931938918342   13.93281977993470
P         2.89556292166999   19.25683828085602   14.81244038255854
P         3.48871375840400   22.90774031435565   15.33045876231463
P         6.48668410182618   20.18542875624453   16.08993151560701
P         5.60223277315181   16.67058983664352   16.14519284578700
In        2.87880963727381   25.02202704386537    1.26978740492153
In        3.08296326773980   26.43152338558470    5.42066620636090
In        2.28829845435703   30.10206775983822    4.62802113208771
In        0.14511645939482   24.41521179117842    4.09050613715595
P         1.89224719204431   25.91092856980320    3.32379817077707
P         3.99062337879314   28.73553591106068    5.73625909730657
P         4.38952792035628   24.31721414046850    5.50689458465207
In        1.44060885131899   25.59171737203115    8.50096156273288
In        3.02267447007536   26.80426762306157   11.66265921210111
In        3.09273105246207   30.76545349477735    9.36772436990784
In        0.55958824011395   28.65402430314682    9.94257967754493
P         0.78612143680975   26.33387328157961   10.74863082436715
P         2.15323684574226   28.87647262385366    8.07971701497348
P         3.81050889935990   29.05548042620970   11.00224972212766
P         4.52885495629167   24.90291622673168   11.14067040862458
In        2.71079014633959   25.23179493032757   15.26519247434913
In        5.99781100280667   26.29054777459333   17.22501805030970
In        2.97154658303896   29.24614054967905   15.57197195127558
P         3.82260817595297   27.09878947185086   16.38655501014313
P         2.07192763592761   30.09758509002296   13.51145410294346
P         7.27870407652917   28.04321911194891   16.09601384681657
P         6.82321482676118   24.16330081000307   16.27245342739117
In        9.12263051822262   11.70855605307207    5.11942826847382
In        8.91843295975101   15.41702514111852    4.82947629337515
In        6.23203830808008   13.17387067813592    3.35384719606559
P         7.34143030415446   10.99913953983632    3.62057432608119
P         7.72799002444147   15.03745193003712    2.70166409404505
P         7.85526882956047   13.57492866173850    6.12104399213320
In        4.92188274430939   10.08285760794758    8.90765118540119
In        7.97729272625448   11.24246100005689    9.41726748837828
In        7.90906695882089   14.98256031017888    9.20295169610824
In        4.96178089605908   13.76040881053730    8.43217677184924
P         6.27323179371946   11.75102672431810    7.66904503678808
P         6.31190533351657   15.59447009848126    7.36785684693149
P         7.17139710630825   13.17017818441106   10.75243359669214
P         7.91607992262951    9.23837664166652   10.79573217970427
In        5.52498049456019    9.51811437247072   14.25745820084930
In        8.00721853093941   12.20883851089300   14.30732787404628
In        8.15419046070973   15.72701954865556   13.73624983961046
In        4.91878098067858   13.27727885867999   13.55263778399783
P         6.25768371273376   11.31634416632642   12.76036528893261
P         6.10113825153258   15.18270160573234   12.39303427577019
P         7.13927709509066   14.23290524216250   15.42918548861609
In        6.21299365917388   16.91183398227343    3.30158186817806
In        8.86490912789071   19.36523431109957    4.57491977858710
In        8.68518512068683   23.13466749518049    4.24377325666776
In        5.83378846615653   20.53216744860034    3.12955801460716
P         7.56052820877923   18.85647608467781    2.54243997039038
P         6.61618717498911   22.87470059948421    2.90339427553283
P         7.76518566163743   21.31157703498199    5.66105080602775
P         7.93091990420064   17.45824777721430    5.85450063041304
In        5.08115199969384   17.52535341761795    8.43269876205524
In        8.05753815017302   18.81647607240851    9.02127404914891
In        8.36039539567183   22.69595446623761    8.98585104411571
In        5.19482752368842   21.28609419463005    8.51367756181370
P         6.32192446876738   19.40065674844308    7.30766300578113
P         6.42043865964017   23.23071803962052    7.51682674523988
P         7.66735604010367   20.81768896501119   10.44502098731142
P         7.33183160978493   16.99549289027685   10.55833069174299
In        5.33736098652986   17.18958547038600   13.73012930043416
In        8.58022073762339   19.60172390956467   13.52645217640030
In        8.91752256044825   23.34277825624084   13.52430888930211
In        5.71699269894818   20.85910423913068   13.83730165643894
P         6.45378883545697   18.97509936025212   12.32553123166108
P         6.73637104541771   22.70016008008858   12.46488337356473
P         8.99074808947540   21.45945204132401   15.09801321653719
P         8.39465245605674   17.74326463737845   15.12514184699948
In        5.58902397282151   25.05179139414114    3.45351998245766
In        8.75787485430059   26.73906663902394    4.19111071908219
In        8.41929160457379   30.86260841565579    4.70700640950971
In        5.58643471590262   28.60320478650564    3.85063704427898
P         6.90353572361920   26.97022230567859    2.57970529781284
P         8.39917407248284   28.66561963106753    5.67945549280386
P         7.82688486025309   24.99142311405454    5.67213341090273
In        5.23923903459042   25.04020038247789    8.76817025060176
In        8.42034585098401   26.37902986261634    8.98142214568373
In        7.65604706290847   30.80847322309147    9.42941025549661
In        5.25130581205311   28.27658744403463    9.13009193703245
P         6.47142292389424   26.81723579846467    7.49857765413275
P         6.00074640470789   30.17460325966161    7.75924575099082
P         8.36497616220760   28.57583665354346   10.10671302219367
P         7.78704911617678   24.55605417997537   10.54653028627350
In        6.03570588909218   24.60186107041091   13.97734243550716
In        9.03055214706600   27.28637900549427   13.31941123270614
In        5.97790214525087   28.17118883446025   14.02697102826587
P         6.85410568830622   26.43466797000940   12.44875415149486
P         6.15555769719068   30.44999907150360   13.18068213269648
P         9.55402795249917   29.59327498732712   13.84766255075172
P         9.39356388788500   25.37654404350327   14.80986717274422
