172
 energy: -12.204806480670 gnorm: 0.000680874137 xtb: 6.4.1 (afa7bdf)
P         5.50401652984280   10.60881767286766    7.00652783813788
P         5.96081834438518    8.96067745425450    3.38849125816407
In        3.01117761504345   10.11660278799898    9.78020360652855
P         4.50690959449445   11.19003080624617   13.16131725542644
P         4.23114018436667    8.20088867063329   10.61957056158305
In        3.83948784494099   10.94101986478344    5.25708995789881
P         4.67037758805806   14.16663148961393    6.78673376144217
P         5.24709866104766   12.02593127878212    3.54846627221367
P         6.04494361887160   14.65186355217396    9.75496099317386
In        9.64710061692431    3.74068152861905    3.05534111973445
P         7.78304569626363    4.73816149360394    4.29906510946257
P        10.91877388647418    6.26658661035300    7.62986506662137
P        11.55342493330963    4.17229695252558    4.52772213030942
In        8.89107312049207    4.72986230399124   10.58595018703026
P         8.01045159059278    7.03300633789679   10.61085498895937
P        10.45057331647800    6.06561035244809   13.52388686729931
P        10.89608552637454    3.37901851719694   10.96419356819198
In        6.57038855933596    6.60774669500220    3.28788634084570
In        9.47383417966282    9.06075308444205    2.97740005117737
In        9.25919155211646    6.08710233395731    5.80043045490787
In        7.14713018034664   10.16317242684284    5.19152504588069
P         7.94363850823170    8.10337072329711    6.27894451445433
P         8.59959984118166   11.33697162874806    3.47513991433890
P        10.54975253818442   10.23246459878905    6.13616282866788
P        10.52615185370395    6.97006065605920    3.82545309680201
In        5.95090927600105    7.10974980558725    9.26092103401256
In        9.28811679693924    9.45406228584734    9.18125291856394
In        9.19082866205968    7.97120266456779   12.59484313948557
In        5.71411971382759    9.22280041946920   12.35406399013704
P         7.39789805300304    8.75056097601247   14.10701772400242
P         7.28720131489523    9.98277800714245   10.55299437661247
P        10.31318719434711   10.89288506334145   14.16954621093877
P        10.86847252725351    9.01707619579608   11.04766016559931
In        6.94055489303108   11.96709815180649    1.75948058751375
In        9.66751790888702   14.70093606900273    2.01666231263498
In        9.85501137817917   12.45084752391888    5.32295497089423
In        6.45705162482603   13.33507694841291    5.32215646004964
P         8.17609251973809   12.94654190306060    7.07152156557347
P         7.98282703325132   14.58724788182146    3.79689186891660
P        11.10724416578773   15.20326369237612    7.18211138738936
P        11.23520931631732   13.64500144939958    3.58807870827486
In        6.40417447907549   12.26088759272434   10.06932559163691
In        9.57861853621386   14.35082290155545   10.08230888885316
In        8.67295156505306   11.17296087525563   12.32816317656150
In        6.97644212938268   15.30148237936749   11.93199929538954
P         7.38703423018085   13.15548928944431   13.05236147799092
P         8.81569368244535   16.58540642630871   10.80034824819897
P        10.25552335529963   14.59342648571769   13.55950632769651
P        10.30780854735261   12.05050843929489   10.65519813768290
In        9.27443540066686   15.72775531981074    5.60933595001398
P         7.48502890248700   16.53594692595598    7.07065755023614
P        10.32155953677056   17.67222510272305    4.47510061483787
In        8.25456991935360   18.76915645239228    9.87716651101404
In       11.63828332808051   20.56105012592786   10.88214844268885
In       10.07383087133141   16.94500791055302   12.91858534958673
P        11.84963366709548   18.29820615819382   11.78395523219322
In       14.83118808344261    4.02205993389911    3.39012861135409
In       12.53427204544821    1.84669502940403    6.74381042698132
In       12.81582213506008    5.35260886905206    6.30917273420437
P        13.02844102382896    3.73075766244842    8.21855615445770
P        14.13864768729876    6.22077229323713    4.32708432393182
P        15.71309300156951    6.15440733438315    7.93552810025823
P        14.42584724743175    2.62795310053296    5.38194001847427
In       12.02128769530616    1.26403210265879   11.32143100459717
In       15.51594875907684    3.58533555537267   10.81042333268340
In       12.29698737565647    4.84563083262934   12.42373846420968
P        13.75457067507235    4.16626329968223   14.26908415028680
P        13.95173968674329    5.50264736924802   10.61762853316987
P        16.47062985293213    6.63888695783889   14.57532574102570
P        17.36367390419789    3.71062920685408   12.36358578452371
In       12.53775882975101    6.50069030523776    2.43636887658091
In       15.30734285253444    8.89962959456141    2.16814998684643
In       15.50490545178257    7.58531122304033    5.91578905370258
In       11.97309139477965    8.41122518504925    5.31105867658906
P        13.66186586472393    8.75460388735743    7.08755522053921
P        13.26324117987560    9.45054044515184    3.45279820245700
P        16.30335226897961   10.87920565145278    6.81554952927244
P        16.90442185812109    8.42787526501330    4.00646052552471
In       12.77504762880603    7.66180274093659   10.20570159887575
In       15.78469961492508    9.70581014488942   10.09171082214011
In       15.09565480378917    6.77787561942699   12.50623810550154
In       12.24387857891528   10.00723854564635   12.89317936453729
P        13.18386763117907    7.85323250879819   13.65136731797857
P        13.83541893080582   10.84177511939025   11.13105028190189
P        16.04686560162015    9.73294179330210   13.67909002991152
P        16.71696329619375    7.49450473590990   10.71914711571698
In       12.10824054819088   11.50926280914251    2.69277604381461
In       14.35953322347868   14.50634758309681    1.93424531943687
In       14.75854068074169   10.88665144689892    4.89105692874786
In       12.68463572327801   14.52953047293641    5.41135845592191
P        13.19837407623833   12.25565647149195    6.20660879656579
P        13.79140756186657   16.06909758001374    3.76710413482148
P        15.01805060579951   15.56856340936788    7.23715778495780
P        15.36542789449142   12.78920751247623    3.38582042814267
In       12.21628491206995   11.24227970121073    9.29815914402112
In       15.08443051489140   13.11205543257929    9.33287783397278
In       15.30318195627397   11.93304303381435   12.85154634033451
In       11.83237203555519   13.13694849261477   12.36342374054417
P        13.42829307854813   12.79122130378809   14.23336511604814
P        13.19446851953326   14.16200554865051   10.54307770286780
P        16.33086003745589   14.73710392098677   14.20027373064213
P        16.82679821783877   12.82426841759792   11.06479495178737
In       12.09762819016516   17.59039644106578    2.80895865497187
In       13.90703596458470   20.87590307891225    3.94844615516432
In       14.63339091064318   17.45522964096825    5.67376909576629
In       10.95487720588815   18.87412242278194    6.50770337420447
P        13.25537171742253   18.75775815949121    7.23481429203874
P        15.38071274994325   21.82683322564720    7.38070585857495
P        15.72122589915298   19.28626452795886    4.34991186360799
In       12.37533596348821   16.47917071625900   10.19580900325271
In       14.85263051608090   18.79368362253278   10.56115511606022
In       14.76788514847204   15.09920769492685   12.29520621571401
In       13.27860939239182   18.43670342102379   13.81660552420910
P        13.27304500048747   16.00556939937713   14.03758223682622
P        14.95913288091864   19.85709619982796   12.75019242930151
P        15.87639947711822   16.52043220032265   10.54939046767842
In       16.02050448003057    4.04901875283646    6.67962757766624
P        17.68280248866428    2.63741220089998    7.80540261987876
P        17.53926901740297    4.93227101346452    4.92147223020677
P        20.77133044707489    5.07267517125059    7.27574950679756
In       21.88995534895883    4.46848121811901   11.37551780580120
In       18.43388278040478    5.45882620269586   13.70134549026452
P        20.20544449835041    6.10958205590148   12.06340841423704
In       17.63146264984447    6.32709613042134    2.91032628603956
In       20.18415968590221    9.10762433769966    2.64510999717883
In       18.98436939227817    6.43161224871348    6.28962307842962
In       18.18532724010082    9.72260944814352    5.72855166621349
P        18.41864447917010    8.33164946694829    7.76496744148592
P        19.36506653101013   11.03726666673829    3.95006997099958
P        21.02480197374370   10.79660699522756    7.42781236871691
P        20.38199602373057    7.63371284264082    4.60062250657531
In       18.56497832066747    5.93215068318360   10.22492850385844
In       21.40615554314543    8.23098885790314    9.96219639070119
In       21.41928695511720    7.73429449573062   13.51237765136649
In       17.98857518297927    8.66409153239290   12.56353238667014
P        19.42577580677503    8.68947890947877   14.58636626186330
P        19.45955085167030    9.54324737355862   10.72177070438768
P        22.21080861637282   10.82996976319059   14.50525699033074
P        23.06452228097648    8.47583862205797   11.78100030604680
In       17.62433626307823   12.15697445868893    2.62142394942117
In       19.43517085987449   15.46583021370497    3.31331769266659
In       20.16531670154456   12.48703995677092    5.83515616459518
In       15.98775767651518   14.22816998777298    5.36608296715047
P        18.06876187756653   13.56493344299807    6.50688156539996
P        17.09108645508529   15.98528778375769    3.94840508240568
P        20.07539180215592   16.36359824992743    6.78963776989635
P        21.23731638015946   14.00586270624572    4.14724693879737
In       18.70862404094736   11.74676559800234    9.87166846037974
In       21.38691432551810   14.00513674460870    9.87346594420742
In       20.77469641196009   10.79749999315643   12.47390233520160
In       18.22117301356974   14.00863257655671   12.78621595694837
P        18.84147525640039   11.78241438687470   13.65379734797250
P        19.71124422552658   15.24487037848463   11.19843949520727
P        21.48220471086274   13.89509821527960   13.95265856970516
P        22.23031673346460   11.83264107211863   10.70999012301264
In       16.44418812731716   17.86015859775860    2.46885185738024
In       17.79776647631465   17.02970263245832    6.13364453147818
In       16.91844296703729   20.29648698543659    6.28555818264586
P        16.74983804625838   18.43598343740125    7.89806856878221
In       17.86970656312968   15.42957855643200    9.55224633611877
In       20.79591715202517   16.14647217459657   13.25587750394233
In       17.28560703896013   17.34779356265268   12.45259239685054
P        18.77485012978769   16.98467377207353   14.35891181424454
In       21.82576480236823    8.91643321908736    6.12170203680426
In       24.95768507671976    7.17903110297396   10.91748943564452
In       24.22563151552838   10.06105543101275   13.32021607150593
P        25.60947560328757   10.90270185258691   11.47781330051225
In       22.68830936854093   12.42827693780937    2.98673341516479
In       22.16271351344226   15.33539317894145    6.03870576437928
P        23.62372108912218   13.58418553011459    6.85364876010998
In       24.16671868935401   10.85670632187544    9.52850254399571
In       23.32868954006745   13.13218350903200   12.54094112871701
