142
 energy: -9.977228437054 gnorm: 0.000099238528 xtb: 6.4.1 (afa7bdf)
In        2.56540887608287    7.82852250123012   10.76689660713744
P         1.88684186421536    7.28585720584977    8.48586808448399
P         4.13765548822695    6.07452966450614   11.49246736914727
In        4.08869659874382    6.89038894967925   17.00840226524527
P         3.00067576450386    6.11699910233822   14.95486462594258
P         6.33973719928269    5.92179308149384   17.06735836831050
In        4.46811053886199   10.31250470646813    4.37570236458129
In        3.76530768693009   14.16894538356025    4.23245754119186
In        2.41937816648285   11.88838313191182    1.86555090750997
P         2.26023704947413   11.41209597354250    4.26276046605286
P         3.98316491857492   13.79440711627017    1.79904806363409
P         5.11445615760676   12.45874533374860    5.45610420347152
P         4.58110136070728    8.05845457167639    5.29076574148812
In        1.39438433029285    9.26097375823438    7.18122222428590
In        2.37907311035710   11.58007661844693    9.85986411500114
In        2.41047570496113   15.25895290896570   10.01619083541537
In        1.00108513300596   13.51322036208040    7.02693191912661
P         2.37913731974797   11.50015510437592    7.37467681275564
P         2.49370121068367   15.40803203680502    7.54066671568538
P         3.77157939183672   13.37052934399172   10.93260202509145
P         3.94742974333844    9.89582590108171   10.82804291665245
In        1.80186239018677    8.08512811133344   14.16552087672472
In        2.61494103806367   10.70331673071595   16.05230414003631
In        2.46555782916775   14.13656029316761   15.97551524659517
In        0.75048889995125   11.87970467019144   13.18734919855178
P         2.65947423880300   10.34172060029433   13.57607419481510
P         2.08471271098804   13.92508273764374   13.53184444611619
P         4.24769624895953   12.50277810797429   16.64363659983779
P         4.57829736330743    9.28354636035355   16.57706361533747
In        1.91171780309053    9.16095542904187   19.71203550196130
In        4.46936722799150   11.16347941859711   22.11126821559458
In        4.63846390855622   14.93995275429890   21.82085927576232
In        2.25592994875255   13.28068853020417   19.67899231563472
P         3.35374141988715   11.10337248824287   19.92814773154414
P         3.85383315570365   15.16173116749763   19.46384333948831
P         6.12184924032073   12.95383676666586   21.85669078799305
In        4.12890422086468   16.15537262560440    1.13696484060348
In        3.95258920765116   18.18860066300574    4.61997874924907
In        2.27543615978377   21.41806155073156    4.74806735304154
P         4.41904272340361   18.32977267409678    2.20901911034962
P         4.10716751357742   20.30677600898226    5.95859482492014
P         4.83815189947601   16.02960152255511    5.48939017948719
In        1.33949892744823   17.57732995281143    7.39529858040625
In        2.65996980255818   19.27550298343083   10.72517143752057
In        4.23835600881440   23.67863896862075   10.56527715976066
In        1.50695359281285   22.05094209875380    8.63645243462683
P         2.14633765330675   19.69171078017382    8.34190499947204
P         3.46385044272060   23.48110914216920    8.22280872227490
P         4.03305692225016   21.28899636718403   11.23490318174652
P         3.80299759498935   17.08550644835285   10.99660712636117
In        0.67560009846151   15.93348698806733   13.30370842408403
In        2.83403415607057   17.78559574286436   16.51634820649577
In        2.86456716806403   21.68995097928684   16.38023808682233
In        0.49724395212283   19.92558172129860   14.10109515500206
P         1.83412072608813   17.87329582981845   14.25757406397526
P         2.04977406092923   21.83474760017783   14.03017413087349
P         4.37927070601438   19.73628133671567   16.79961382787968
P         4.30112319710838   15.75689242684291   16.45787125785166
In        3.03255513283062   17.44458623607594   20.00300979549091
In        5.00402003764985   19.13927104315969   22.18196860147754
In        3.80663369853659   21.91655453363205   20.14332984385656
P         4.37432090004781   19.53197015422274   19.79299195261220
P         2.28418985207441   23.74949513001911   19.81603708245280
P         7.13112890252406   20.34846206046580   22.03871296432703
P         6.10011299265295   16.93125339484767   21.95196432605736
In        4.25390507910101   24.84791632069447    6.38259442710893
In        4.26626210144206   27.35544360379213    9.94545972314705
P         5.82499896724264   25.58519667956358   10.53228682133879
In        0.86757005617252   23.72992754170357   12.98946346294201
P         0.71636668018196   25.39385998928817   11.26534123260573
P         3.25294682967392   24.10474870367501   16.71263962170382
In        8.13584712722427    7.07555868767426    9.71004554360386
In        4.94691155358233    5.88912712433071    9.19287520347481
P         6.42396344209211    7.46198734853764    7.97214227723939
In        8.67106169764409    7.34172409864372   14.41805447865188
In        6.16466670725491    4.92151908693528   14.86339586748854
P         6.57642827274469    6.74522110715723   13.24069016078702
In        9.32097575201452   11.32688864830372    5.48129729766935
In        9.27958287346117   15.15518538409135    5.53769213387417
In        6.83676289521044   12.81313567067130    3.67370146493863
P         8.40569785269127   10.97064610297864    3.23620559190323
P         8.37522017650426   14.72370434570257    3.28439356626527
P         8.11827370309389   13.21628279359715    6.58355281163888
P         8.18159157643333    9.38075353968101    6.45504689694378
In        5.00460958107404    9.41533784123078    8.64622267136570
In        7.83603984409492   10.66552335918406    9.80178675411818
In        7.90189604616612   14.43639590995450    9.79308409078998
In        5.05008457075363   13.17380959873442    8.81158286990661
P         6.43307523451213   11.31091873921241    7.83538004954295
P         6.39780259511356   15.09698792255952    7.89576018121579
P         7.05986052513645   12.56042338870254   11.20848819089749
P         7.20294326024409    8.74541840226588   11.25107016783010
In        5.25890502555279    8.61320517003329   14.29719262771018
In        7.85016960376116   11.04604691918762   14.65192867539875
In        7.62977313480436   14.95430885411515   14.59394261229164
In        4.93599892888954   12.53096136137159   14.26005946280497
P         6.01189089311487   10.62365314937909   12.99508023136260
P         5.85862648447392   14.42899842930528   12.89737993734160
P         7.40594492403996   13.00160833624516   16.13449446743717
P         7.97096578692845    9.00466935174878   16.06202734499944
In        6.79357734951296    9.08200023480217   19.67321870721439
In        9.38293093077012   11.55471902095431   18.78214086442060
In        8.99272627824634   14.93920206059846   19.34268101892464
In        6.29023241431030   12.94311245951224   19.39426271017609
P         7.07894938194628   10.92603437542643   18.06853884767321
P         6.82259592515526   15.03894542051194   18.07481741070556
P         9.30693826615094   12.95805540601696   20.77089293635992
In        6.58866012740276   16.37718293880447    3.75200006784578
In        8.95546899041924   18.98224500284322    5.36062982518957
In        9.41735123300727   22.61557940138742    5.79679022385113
In        5.90211841616461   20.90367261335301    4.34757955444785
P         7.05617487967284   18.81058093621135    3.77030874131963
P         8.08101205714896   20.84231906655822    6.77432257760959
P         7.97376081539520   17.02550943349424    6.55310662900597
In        4.99693790961412   16.98609181592133    8.81838996748239
In        7.94721223903614   18.15775973315600    9.71361065514309
In        7.38433017798670   22.52635081742859   11.06736397348234
In        5.19007350544070   20.84149133657852    9.08262269387147
P         6.33959197571517   18.92360094683705    7.94006862265594
P         6.69553370868935   22.80223551423285    8.69539808139184
P         7.75109432243875   20.10571760361864   11.20641421428233
P         7.06996283739083   16.33535243175446   11.16680970323257
In        4.67589278613413   16.29343815256927   14.07739894188760
In        7.76291203995752   18.80906555578636   14.40889820155904
In        6.17403820648229   22.61902594726606   16.25585008097948
In        4.62791557848718   19.82974160033005   14.33319947363946
P         5.86543329819309   18.18115765104309   12.91173949144551
P         5.13849165145003   22.23950601484847   14.01296376158746
P         7.85098853426047   20.90640415433001   15.68730975246273
P         7.28109148842705   16.97934978432002   16.00310656320344
In        6.41063698737685   17.07905351510719   19.50953403998411
In        9.46937574851848   18.47913956101554   18.83117651880326
In        7.28090799797621   20.92133016948732   19.67008070919074
P         7.16318738451461   19.00331751224551   18.06699666966554
P         9.27462769426147   22.18994801218728   19.09465201933773
P         9.43541639673841   16.93756395112872   20.72017139716856
In        7.39900061472025   25.16591902334446    8.70518033228175
In        9.60311909773327   25.04926036816806   12.73053923756301
P         7.61951879865020   23.76401546740930   13.19120297353942
In        4.02677378459496   24.44401959373522   14.40958594566411
P         5.14969534593687   26.57373179579396   14.04877845449196
P         7.19324625302336   24.81476620335349   16.52232241368057
