42
 energy: -2.773492177943 gnorm: 0.003960131643 xtb: 6.4.1 (afa7bdf)
In        7.96339414404004    0.99007714249201    3.27854139862809
P         8.66048867034465    3.24010396226517    3.89012527939679
P        10.00365073029754   -0.35214591774468    3.22187599098975
In        6.81578574895996    3.08652661254629    8.70030485213559
P         8.84582490859581    4.20340365398623    8.02653526122301
P         7.17479643583532    0.70159583533908    8.49933789880551
In        8.12768934691242    5.00695885260723   13.14211027135425
P         9.47197740184449    6.03884952994577   11.41399359338537
P         8.69527927689693    2.78941651390578   13.96132132526946
In       10.84815503576880    0.53004594032375    1.11889915100836
In       14.69306939978097    3.86955671222895    2.84283709955293
In       12.71594303206260    3.96828702222116   -0.36490012869507
In       10.78576144745534    3.89209513885775    2.81969450762058
P        10.71264980041602    2.90926624261854    0.56312069234087
P        12.72743097107313    2.87089946807814    3.96237409278090
P        16.79478363391956    3.15165721914631    3.91052388359603
P        14.72679237664928    2.93265257086858    0.56672453605312
In        9.03963771064807    0.44501181998085    6.96870981644337
In       14.47079944592610    3.45730568898195    7.21035388136401
In       12.68459767634178    0.36817010245488    6.50904625838566
In       11.02046938027940    3.51464505126719    7.13112422454981
P        10.72838472081774    1.59836947521717    5.55675864186747
P        12.69942551232438    2.67264803483566    8.75448861912170
P        16.70053540827857    4.11940728732106    7.98318597685287
P        14.67640735728223    1.56696056411811    5.59348894270860
In        8.90653997359581    1.17113887780270   12.16691157034502
In       14.03475765330813    3.27657987101455   12.59154999863135
In       12.54270773457254    0.26483999023879   11.19707654152039
In       10.96570383581315    4.09861799580932   11.28868368473891
P        10.66761763763373    1.74213341288846   10.54910533778809
P        11.70632051002131    3.10499005778611   13.40121427383694
P        14.35635525410118    5.36400692963974   11.32628895543873
P        14.55358864900433    1.63896489780628   10.76920334108492
In       14.54570314611596    0.55098550184959    1.10757938797193
In       17.38760681118129    0.86570252899576    3.34519969362346
P        15.28536835072097   -0.36644395479295    3.23605355764041
In       16.30568594819935    0.38286034792745    7.05017051317117
In       18.80849315386275    2.96523751941283    8.25313136383243
P        18.31483699373780    0.59775322378267    8.40049549783195
In       16.37823291974852    0.78606190321162   12.19210200659675
In       16.76426066611314    5.14877214712818   11.58529849379992
P        17.41041571790382    2.97308687750231   12.44549971542559
