14
 energy: -0.470714386764 gnorm: 0.000413629706 xtb: 6.4.1 (afa7bdf)
P         2.00714473296457    1.15646380218849    3.77276437948074
P         3.96841257501069    4.68415895893047    2.91944336219401
P         6.04300138205177    1.09992222361324    2.91756832315405
In        0.32626969912906    0.18868617874769    7.70239330502595
In        6.99804100844507    4.03800114631409    6.49886656058720
In        4.61364388736057    0.53697176022798    7.30371121151470
In        2.77285981484446    3.72820466964336    7.30314219638323
P         2.41242718860766    1.39439126282791    7.92810273365224
P         4.75966969054023    4.97765602986275    6.73171837078859
P         8.55225120062457    4.93383851480576    8.12001809225315
P         6.68959883110405    1.63115127510447    6.72645908250360
In        5.66735069751104    3.27401075718400   11.07120456118649
In        3.35393626933150   -1.00431857470530   11.53036511378732
In        0.80424786527700    3.40654621255086   11.52962270748785
