52
 energy: -2.734409652471 gnorm: 0.000717116692 xtb: 6.4.1 (afa7bdf)
In        0.69870568587163    2.23037701730473   10.05232522563492
In        4.88196592735089    3.57085683127268   10.77855895373233
In        3.14337500412217    0.83867981505918   13.37769609771436
In        2.48384736956640    4.28363835939605   14.33308150311587
P         3.19619690817155    2.20268368986454   15.39658990893459
P         3.83281204388804    4.98576276427142   12.44591817171973
P         5.64333442223354    4.76637817310129   15.84576643106903
P         5.21839356006480    1.62550831516062   12.26529574051515
In        2.54304050151061   -1.31038838338316   17.42317452484859
In        5.13544355772929    2.04472061193375   18.51670718630512
In        4.84644705032022    0.35035674916832   22.16923530184529
In        1.98576989381958    3.11021257954085   19.83294755048017
P         2.83933529229502    1.41700549906691   21.33714609296058
P         3.54538717328462    3.85701969249787   18.12635922026794
P         5.32891310763374    4.21239134456507   21.75266017977845
P         6.31370952321135    0.65910612891573   20.19889305772380
P         7.97147198519556    1.07190479804671    7.85861151232335
P        11.75916546825322    2.57569444976754    9.44048799355557
In        6.14938091865592   -0.48587019468820   11.44770724186260
In        8.44394180452803    2.49741383980670   11.59270031253888
In        8.33714500102725   -0.31804097062827   14.92065831004798
In        6.14016148427299    3.06412582476934   14.12793243301990
P         6.23327307884260    0.85045762983722   15.23657301970645
P         7.65807809554705    4.48102912036110   12.76246871418880
P         9.04913068326449    4.71449970832589   15.97772501686138
P         9.55598244446021    0.95736042230250   13.19255938375103
In        6.60913580466266   -1.50778693820269   19.09841872842598
In        8.60001315246813    1.62814848715571   18.12726952724200
In        9.25838178556105   -0.49000799436820   21.89347997888114
In        7.23712229978184    2.82751089896940   21.10958317175462
P         8.44473737636447    1.57237639594094   22.87163001436093
P         8.00377698663655    3.83293111462066   18.97537028250115
P        10.30979341539930    4.48219241531273   22.32361675865408
P        10.05231342423412    0.44051144159594   19.74539322911676
In        6.24747873994885    3.27436138765095   25.81987162860716
In       11.34419913705348    2.10326261935142   25.85406027618687
In       10.63770001795641   -0.66651006153483   11.71680694913199
In       13.27408232928848    4.14040125824117   13.05869443476496
In       12.70049872805979    0.46956593190540   14.82499373420293
In       10.11086459639367    2.91800132040536   14.67303454932206
P        11.78709114665225    2.13746133593655   16.34987237675836
P        10.87098498864166    4.42636068543386   12.87619298082161
P        12.10357518371735    6.57599039938197   16.32982464322820
P        13.67973896255323    1.75597111121386   13.02253070369533
In       11.24197454431991   -1.33563287051249   18.56258836706461
In       13.61786682897988    3.98067991080928   18.85962421983550
In       14.61298875343097    0.93153400688460   20.81665677798039
In       10.75695783251525    2.63642605043808   20.76026685732695
P        12.49406099058212    1.32928908539105   21.92896113492772
P        11.18750118321161    4.13432551537089   18.84026172403444
P        14.21081629261845    4.76312544746026   23.07464743025076
P        13.57813251385640    1.54286222947278   18.70073043646032
