68
 energy: -4.546075605917 gnorm: 0.000776535938 xtb: 6.4.1 (afa7bdf)
In        5.10750815261461    3.26921024600535   10.33444141385943
In        5.02104576306677    7.11606203179601    9.62903041551408
P         4.40798855931558    3.05081443245680    8.02827002639029
P         2.84500220456670    6.18606962758487   10.01955242011284
P         6.47117817137977    5.34198080771689   10.51690392009079
P         5.55158800267212    1.11317775115904   11.43887128393446
In        2.62534434032893    0.06523442916404   14.23343565276486
In        4.61776722799721    2.46842044937498   16.35505000950906
In        4.68933863737619    6.97344181576956   15.60675272854163
In        2.94647925859861    4.28863422906463   13.47186147535697
P         3.94031515157642    2.09922216667125   13.99532819551762
P         4.02031970889572    6.46406726509742   13.32908133799981
P         5.52863994484991    4.78186516029245   16.33455329778574
P         5.53373654060187    0.31528165871991   17.14143731621391
In        3.32013474509188   -1.08435697306931   20.03436887594090
In        5.13935736284369    1.55087159462489   22.25930492148098
In        4.75499688719970    5.97645308992169   21.43250451806668
In        2.87721301730157    3.18467647591208   19.63975272990456
P         4.24270440636769    1.16592210333698   19.97396874677126
P         3.84647834115127    5.37996854592878   19.24964375015354
P         5.87968085525595    3.92645805008766   22.21586466189749
P         6.27319790189011   -0.59355321097186   22.66275647721054
In        6.69715437033975    0.35052272499126    9.42149306574716
In        8.45085173782745    2.83435348946935   11.11867078191156
In        9.49605448429064    7.37335148150693   10.09830437836773
In        7.58920971475173    4.65186648528373    8.39760577508660
P         8.12857394303221    2.24069738946289    8.73019906039680
P         8.91128792819713    6.65717345828979    7.85527235934149
P         9.57002307736803    5.06379665785263   10.95225538191569
P         8.91192594625710    0.60030318561386   12.06231227148086
In        6.50671938975501   -0.44479420938004   15.04491829275077
In        7.90881370502509    2.51788430648134   16.61972542304319
In        8.57594545283902    7.04746481161770   15.52159955940363
In        6.53378816925968    4.26941386609651   14.12524904868540
P         7.09456749572830    1.85475546073843   14.36648896286773
P         7.72106857539767    6.29111395586816   13.37451544754831
P         8.93300201968553    4.76847552475476   16.38200431923963
P         9.24069935007455    0.56697356705210   17.30295016831884
In        7.29176704623068   -1.16734962882411   20.53700788639195
In        8.48662713245508    1.82378999879000   22.19422303790175
In        8.24933576426153    6.29927372183606   21.15452513878570
In        6.55761914903152    3.52017684913018   19.87167497591216
P         7.49618694754068    1.22189833876618   19.99030891490793
P         7.20711666916009    5.73642041014702   19.01865971973900
P         9.23888941520482    4.16322032738314   21.87151034615882
P        10.28175366997172    0.16056927307646   22.37362998173322
In       10.19863668965135   -0.42639525475515   10.27385685908973
In       13.35091763579418    1.57600201907773   10.66040458401562
In       13.72499738486732    5.30383231253424   10.56823683507647
In       10.79810428791044    4.12673397403685    8.99625187337325
P        11.12558189445513    1.73646610731640    9.56760730224360
P        12.62346271814990    5.67697409629232    8.44262680460471
P        12.62098800474060    3.58254335862685   11.92113856713001
P        13.42545919399643   -0.28986442139477   12.22012025700298
In       10.50421469185084    0.05272099451705   15.30128829236289
In       13.22170761471884    2.58851369592306   15.25190451414711
In       12.58285306703971    6.21099515525546   15.53122200416601
In       10.04000414185620    3.82402743820283   14.36441385738426
P        11.37717885066567    1.78276883271191   13.77750884988105
P        11.27595937900115    5.79750854462244   13.52872483669044
P        12.18431862698496    4.17775238242136   16.84661442462874
P        14.04215679489086    0.64332019835970   16.46163754642592
In       11.25880548398801    0.02914894625203   20.16813006870071
In       13.60681382465439    2.96731082374081   19.90909212363103
In       11.97496720903591    6.74109596593667   20.73621207468452
In        9.94083086741559    3.60692200599108   19.56702624619889
P        11.68140662834550    1.99825039118411   18.73717203823866
P        10.67589367537614    5.87817924057081   18.90437156773162
