38
 energy: -2.004440954752 gnorm: 0.000660862412 xtb: 6.4.1 (afa7bdf)
P         5.85848141352785    5.36585785514501    9.12227753608888
In       -0.40397881689988    2.07446682046158    9.30549763756644
In        2.22962292345162    5.05478628409669   10.44147500852582
In        2.89111605590725    2.61399550889529   13.06381948589908
In       -0.64842738150143    4.65843645030745   13.64414203480853
P         1.15996189080896    3.35410041840585   14.58075673343306
P         0.41316700403396    5.99024081475848   11.84430082417281
P         4.17434522968019    5.77983066772058   14.40457002418131
P         4.12262200814474    3.82779538521770   11.36382031210597
In        3.73064001532070    4.72784887470093   18.12487289239525
P         2.20610731244327    6.11478834772368   16.85649242986061
In        4.27366683797385    5.99886395214389    7.43662871163118
In        0.05122260130130    8.07347951017690    6.52126594322908
P         2.17265545917971    6.99500829502587    6.77022361984050
P         5.96874618757317    9.20281085435328    9.55694862675615
In       -1.43301532980613    6.57384699932032   10.34499697077990
In        1.83736793390159    8.52570223489907   10.33430646991162
In        2.23375892392302    6.88300944213024   13.34558207220509
In       -1.04525811337450    8.94507651341209   13.57586357607695
P         0.54053860626423    7.74170257261610   14.96858463392779
P         0.41322214216175    9.89963880672791   11.83422984570648
P         4.21420133280244    9.53311691768587   14.68717636777705
P         3.77628294516306    7.89826639055800   11.67264224135144
In        0.46997296876680    6.48939420423405   18.50206458036071
In        4.46361645031731    9.05231145516664   18.37029803583905
P         2.65977452394791   10.19369673492955   17.17454289015296
P         6.32410280750289    8.24755092236640   17.07599157373461
In        4.61766306985741   10.38782762309646    7.97306764254240
P         2.53472087114175   11.46704230153219    7.49799448538781
In       -0.66953018632980   11.31815165642764   10.16160964983051
In        3.06055996665893   13.61665648813333   11.36972152200186
In        2.27645706193199   10.43116615042624   13.44423128138697
In       -0.51659257246957   12.86125872080167   13.71059182480105
P         0.90098983934370   11.56434455142313   15.19286615527552
P         0.92695012650549   14.22527367117199   12.32606383221574
P         4.34371367789731   13.47686190230373   15.55321883663329
P         3.52025250962139   11.24265837733141   11.47676327831199
In        1.23370420328085   10.83227782414998   19.02028041333680
