96
 energy: -6.597397122503 gnorm: 0.000121210633 xtb: 6.4.1 (afa7bdf)
P        13.24968888302302   10.43899550229779    3.74285456405562
P        12.11487097965865    7.11341350071540    2.99818074303059
P        14.95397986656597   11.89058747697460    6.94214326368589
P        13.54908830685783    8.40797291635713    6.40734850217896
In       16.11548403813251    3.71175652679828    1.54618563818057
In       14.31805905270903    0.25198894606184    1.25870341492631
In       12.30576360096910    3.86641049418019    1.20849299375086
P        14.03242135564963    3.58857337671174    2.90890527266724
P        17.78838172429108    4.54560277652352    3.18786114103239
P        16.45671387659677    1.34026324606152    0.91999832973803
In       15.37975210743283    4.59412337605184    6.53254512499701
In       14.47384206340906    1.11370454003505    5.86267124912275
In       11.60032959074521    4.49186693944788    6.53550846430617
P        13.45578462133665    4.70498118614470    8.08213472905999
P        17.19653249595845    6.24308217630008    6.76957714471002
P        16.01784079065211    2.78119424656035    4.92323560697167
In       14.24770098222275    6.03753668521138    3.44015499738723
In       19.42217152531575   10.08142543210738    3.04699506385540
In       17.73707130262428    7.01809045803526    2.92391348280949
In       15.04997827704910    9.20839907655222    2.67330795990017
P        15.86851119227033    7.66642960947044    4.46720472294746
P        17.20360770975833   10.17922549429240    2.00380238249132
P        21.26841962547642    9.80158904069691    1.44982206179582
P        19.54804680015607    7.96805041616270    4.37098433534092
In       13.76190467355672    7.13429934569140    8.45245010770596
In       19.71299725893785   10.06111748426010    7.50596052432253
In       17.37595056057042    7.04486691621900    9.10272354824714
In       16.22222816923685   10.06591616677336    7.92613190207361
P        15.44366553930687    8.48049800953222    9.66195760618860
P        17.77579770501774    9.18677143114165    6.20968326047032
P        21.50473322982109    9.01738505873989    6.13467871374604
P        19.16734799629055    8.70578046235528    9.49079936126938
In       18.13522303878514    0.18997908549721    2.27361409847800
In       23.34772748604678    4.60994191711875    1.28309183810902
In       22.36912378973621    1.02289950731000    2.08442121366471
In       19.62309877157006    3.47536166335844    1.86132643159839
P        20.14132263940551    1.34949009744343    3.07656934782068
P        21.60181316876631    4.40568492592668    3.06517952869774
P        25.07964128925670    4.27105207175092    3.07593386160990
P        23.03608361066945    2.40891203001934    0.18433241359187
In       17.92290611864741    2.34660600472775    6.49118853458884
In       23.00959576551886    5.31941392189533    6.74486906283498
In       21.47885541581636    2.38966304121435    6.63908299612665
In       19.52622113751235    5.39403787105410    6.69264445180652
P        19.74182572481852    3.43493898481178    5.16056412051655
P        21.22545960523177    5.17564783370162    8.47093945986813
P        24.88692094488128    5.44450395252341    8.37145955094135
P        23.28388028349798    3.35523474303747    5.19931943764739
In       21.34494987854776    6.89041321114983    3.00739767216457
In       26.78982921058244    9.75724034317511    1.73857911926438
In       25.24765144004327    6.79897569591286    3.08579003906329
In       23.05370509303792    9.93062732443754    3.12848496859805
P        23.30483581272704    7.75164092894425    4.32384309056950
P        25.09659285799401   11.22532603451425    2.72773515243284
P        29.09871979716603   10.59066874179097    1.88276913795045
P        27.25810835770146    8.21567543444570    3.64708205643463
In       21.30457227888200    7.46975666531785    9.39507912029262
In       27.25877567196634   10.35775019393440    6.92461011898625
In       25.18846850138648    7.59181801871812    9.55322483189277
In       23.53153051530975    9.81297212109643    7.34000697233560
P        23.19126055889492    9.03901444395211    9.64966158832244
P        25.38465631226526    9.18732363219445    5.80615393423067
P        29.11196871814651    9.43549653163437    5.55779010627345
P        27.01950928413941    9.17636079188554    9.07238357410782
In       25.17445736975646    2.11730789289320   -0.96419076379971
In       29.61079838129656    3.39648162836020    2.54809185602091
In       26.47783758186977    1.05108720611651    2.62246823664481
In       26.90419221900025    4.61874485902057    1.37546736136863
P        27.07042496117073    2.27058541324286    0.58202876650274
P        28.18150392193345    5.27477792246791    3.46287546010579
P        31.92580727882211    3.97331698088649    3.28662066310716
P        28.61373652452201    1.44781241713458    3.78256294330473
In       25.03230524410951    2.37427258348556    6.68448166832181
In       30.89479016105045    5.52573957666776    6.70532476718164
In       28.23628757688275    3.30630772087016    7.34600233170918
In       26.28110034403980    5.85515456468977    6.38038571304496
P        26.74165422545157    3.62336838041093    5.35253021497815
P        28.66105888970160    6.56573462865090    6.35177209915878
P        32.25845003850306    5.31503854192881    8.75508629253645
P        30.03645077168933    3.44903815868958    5.61971210206445
In       29.09222095958151    7.24672121417255    2.20987265344268
In       32.42455856194403    6.31471000523887    2.62098212418209
In       31.36880173300021    9.76530250583955    2.33168054257628
P        30.89887784116291    7.84964341836238    3.83898228163025
P        32.05990005571492    8.80691162140163    0.21717000626754
P        34.57916212245986    7.36709284448718    2.99378161752462
In       28.82586170831430    7.55172069018908    8.61601336857104
In       32.87396618955914    7.70299188938925    8.48853253668671
In       30.79111654337146   10.33043996670152    7.13381210930171
P        30.82234430603354    8.90904002621186    9.14461913248821
P        32.81532979665852   11.09929296994885    6.03988677262408
P        33.60017770249902    7.60954687092572    6.18217388430750
In       30.11216893109271   -0.24134273167497    2.86419004089024
In       33.88167296533157    2.56956779880726    3.00798639644109
In       31.46976137453314    1.76377585653467    6.70146605343957
In       34.32886651781082    4.26204045476439    8.05446672307399
