48
 energy: -3.169945959305 gnorm: 0.014210305328 xtb: 6.4.1 (afa7bdf)
In       -0.07335364856647   12.69532425571030    3.77675312333317
In        3.67982385722670   11.76912262247883    4.37887522983029
In        3.77988709148801   15.42506968126585    4.30157812978673
In        2.89511546816281   13.33251458563742    0.93975848749197
P         1.91237885298118   11.89470488738889    2.64770998550822
P         2.77197185331775   15.50740275595314    2.06471586138006
P         2.77404657481154   13.64352172629542    5.71248833845124
P         3.02611071775469    9.71944375151043    5.52691210044139
In        0.43763848776628   10.10384788253177    8.88989934582265
In        3.68053591759059   12.02238339481950    8.69254323822902
In        3.45307261265771   15.63650667413342    8.83377482875648
In        0.47888624258892   13.75401937529699    8.72395170654850
P         1.49765557459651   11.84172282811147    7.52776712148745
P         1.45818250769219   15.57440772310811    7.33557114105606
P         3.35800727560966   13.74537521647554   10.40156157075767
P         4.44485116982939    9.84684962734686    9.45683125371293
In        0.66438925823439   16.54451136904069    2.71509768144327
In        3.44538989624780   19.05533367617858    3.85378018703328
In        3.33951100946957   22.71502004846099    3.56518081718022
In        0.15447222368163   20.85100855711820    2.67889268382384
P         1.49383498568891   18.82623028675180    2.36113396564040
P         1.84175068104091   22.29596043235023    1.65013816127837
P         2.48275020206314   20.95756031816010    5.12554850118604
P         2.65589841699881   17.32388212344454    5.44434222213650
In        0.29960072695087   17.45824533278617    8.49089508052342
In        3.22304354781053   19.33619960130154    8.56227036449382
In        3.03074004541897   22.92185252603536    8.37983433340326
In        0.08369214960688   21.15464209450198    8.08467010488634
P         1.26134612663583   19.23647632541736    7.01848559504541
P         1.18773627752767   22.92283237878029    6.69459128691913
P         2.73021662876774   21.19296812162830   10.10339672135617
P         3.09173150034041   17.58266999099894   10.28668176074793
In        1.24761707061614   24.58619800323553    1.01530821563622
In        3.64090189814006   26.37193886295666    3.47906264684338
In        2.30508263669637   29.97448662806481    4.74817907064634
In       -0.05692873452208   27.28883323494286    3.49748910995276
P         1.76085942983474   26.78870112099297    1.93861201945884
P        -0.03410927231196   29.34538498684590    4.78054819009415
P         4.14302096184467   28.40726502775200    4.75310036439438
P         2.52148952587358   24.66779235413513    4.88149656675796
In        0.08135451171131   24.90680961034045    7.73123485472592
In        3.91829456368232   26.23553529501630    7.76365969849153
In        4.62949700517333   28.51769097783749   10.45794245806463
In        1.16900798782492   28.23305431087246    8.61595766697558
P         1.65438238222622   26.60425427417067    6.82947719063725
P         2.31470148058890   27.85624734777994   10.72659840213302
P         4.54733647501487   28.61876191930729    8.03758931121962
P         2.81771784562768   25.05455587470556    9.60707330429912
