68
 energy: -3.525250535472 gnorm: 0.000761745202 xtb: 6.4.1 (afa7bdf)
In        5.74052508797604    4.71919104241923   10.97149234143152
In        3.65071765424221    1.92425573470062   13.05423158850730
In        3.66220123858130    5.13444331433052   14.76648419958630
P         3.85816909807846    2.76864475906492   15.32853881324129
P         5.02726093019205    5.95054164617671   12.93563609935281
P         6.93992482258085    4.85076516386602   16.18835738980965
P         5.85122853790282    2.51988234733036   12.08668462120219
In        3.86324237049358   -1.63828061768284   16.00146167502400
In        5.51895149329576    1.70938165753446   18.52019491266051
In        5.89083447678494    0.07555352456827   22.07108601545364
P         3.96500103127694    1.49251436339886   22.23431930352375
P         4.16968441393129    3.68993286168441   18.51125196803994
P         6.49387499940462    4.10743947344090   21.47479705594619
P         7.08308232356843    0.40230905248975   19.92321535774262
P        10.88252686418222    3.86551587309388    8.10027220605914
P        10.50270880500053    6.91240078334810   11.26308418534729
In        6.46128582445222    0.48737843758839   10.87902724095401
In        9.30726527038230    2.88166767763414   11.63702643672475
In        8.64484323687745   -0.20556226502582   14.49284985845811
In        6.92892180633497    3.42929416110775   14.17771992766437
P         6.65586782759929    1.10092503394927   14.95430210492650
P         8.54850824187498    4.81320269946376   12.91211533338723
P        10.42761102926986    4.10862619795510   15.69184116741231
P        10.11852892974217    0.83669714747884   12.79505260345447
In        7.35141089494474   -1.81608044518812   18.91225075347683
In        9.55524913397573    0.99078944786046   17.88908419323549
In        9.84567706093068   -0.76870339281384   21.90350838200871
In        8.19857557012381    2.51788165325554   20.73087562804896
P         9.32305294286478    1.47245862795858   22.67947103413448
P         9.11194233745985    3.29127273138316   18.55401453815649
P        11.10535118069114    4.54403109576392   21.20393219118081
P        10.80873090502121   -0.08620403096888   19.73143468284566
In        6.66050552085049    1.56678171329244   26.04610536342459
In        9.21544884154283    5.17636320670531   24.76889843949728
P        15.31624915119461    2.23359608183029    8.10234023501757
P        13.99079162682685    5.82158563661717   10.14139975249517
In       10.33885338858989   -0.90768590213152   11.07496726654513
In       12.79573149616698    1.85772031308871   11.14691952721100
In       12.60358235560833   -1.15154735158952   14.31643791726458
In       11.44705754270650    2.33703957241419   14.32603735488041
P        12.42285286405551    0.67275995268967   15.91237539742561
P        12.46971307034593    3.79788880002939   12.58870744157538
P        14.24083856700466    4.07907965481319   15.58647828242138
P        13.85538883496785    0.31647720202772   12.77554835976870
In       12.99543220644358   -1.11271385582257   19.37124804663926
In       14.92427973670733    2.10946582942836   18.44261077543408
In       15.08103549772002    1.19690922890123   22.42243057880405
In       11.54445392580465    2.22246440593455   20.46893882116308
P        12.66475517952016    1.35420277414540   22.49000996528113
P        12.60036125664277    2.83160409837685   18.32385041601821
P        14.33215509165790    4.47599724975068   20.91752305689046
P        16.39005519562768    1.53101800146817   20.35480110083471
In       11.43091434979907    0.50936780834714   26.25505813882129
In       13.86806926983041    4.60872082865780   25.05477240092934
In       15.93121028522008   -0.63788024639954   11.90354112247154
In       18.00766680785555    2.78963272008844   11.56331319219579
In       16.32623365483165   -1.15247932251887   15.78328007827627
In       14.86226960602879    2.19280455576389   14.13094283061232
P        16.78094546337670    1.14396299204059   15.28599223570355
P        15.70645474791863    3.25323167364388   12.06649200082464
P        17.96214314475904    4.78863476782412   14.98272750806230
In       17.28964192287934   -0.68986673363491   19.85731047684453
In       18.95691867454430    2.57554640832857   18.14727411725809
In       19.13498767621014    1.89985440005210   22.44335133260583
In       16.71457012157154    4.02009027596499   20.63397948215579
P        17.75974170580805    3.84430578619001   22.86694684089101
P        17.32713111406746    4.37215246531144   18.25920066805690
P        20.04187876506546    1.88736425121721   20.19801566662252
