64
 energy: -4.023210497098 gnorm: 0.000304038552 xtb: 6.4.1 (afa7bdf)
In        5.63173749062703    2.75221683875827   10.49151374531538
In        5.84401138253209    6.98290275004620    9.81569485548161
P         6.90876318568808    4.80753012569585   10.04036670363309
P         6.59299880852928    0.60913972055319   11.12810639718106
In        6.03407821239602    1.82150930630459   16.19583708325901
In        5.22254625962830    5.93760947573976   15.51178598703863
P         4.98022436726585    1.37573721201685   14.05736918902519
P         6.81216729758809    4.17928279197160   16.05692912296384
P         7.20189898214235   -0.22403277627926   16.89589583174078
In       10.78549924442751    2.98729737844081    4.49208895747990
In       11.73480187636523    7.62563418252068    4.20944190023634
P        11.59095385607563    5.27095486533116    4.64447063661729
P        11.36847915943756    0.85450939341142    5.42658646736001
In        7.64525690516149   -0.09943969798097    9.04538403007840
In        9.27419967509928    2.56221587954098   10.44218183213166
In        9.77863736474959    7.18381916305136    9.38235658364562
In        7.86276236012361    4.26505545448406    7.81187501429142
P         8.68165799068215    1.93780074455531    8.12083037264075
P         8.91753887373725    6.41162328489148    7.25109529717178
P        10.14418498347292    4.87206027334071   10.14573631777270
P        10.09756896593026    0.45127273879171   11.40782805931758
In        7.96878766277174   -0.90201144029510   14.69358517722259
In        9.51835412836205    2.10832155681462   16.22149099516026
In        9.11623719924202    6.63715465826251   14.93185368750169
In        7.58676586877520    3.67573544501974   13.75940242383812
P         8.54357176461897    1.40299433705824   14.05235519962063
P         8.25104700532501    5.84480792671462   12.79714836331672
P         9.96742373090525    4.53606932544883   15.90197835941790
P        10.76959581861020    0.15242055389538   17.03971115176895
In        8.62201718812401    3.23719852335634   19.79110215566887
P         9.31184203167084    0.94447704455365   19.87344232956143
P         8.62965897823047    5.43129896421366   18.83038075064623
In       14.81066295738768    2.64350912180157    4.60032525682348
In       16.14179109154431    6.05024785157228    5.27107873560906
P        15.71048290876503    3.96325457396272    6.42044087857722
In       11.12245582882861   -0.18757818226667    9.28310065756850
In       12.66146882517876    2.60257640964557   10.68496947218414
In       13.61793975625305    6.39617907332293    9.73969587658004
In       11.19490748897448    4.09652641602904    8.03188893442012
P        12.19771444318621    1.84612585944259    8.37790890628738
P        12.76939423724010    5.91263697342368    7.52725036854341
P        14.09870075315021    4.55629427533118   11.31425931749173
P        13.57310301526471    0.46681056912226   11.53823139404005
In       11.84657551232475   -0.55635458439682   14.98740005287695
In       12.97524933451401    2.81124211251647   16.10266101009075
In       12.93458529737937    6.83660915333811   15.00771872497102
In       10.84887730968060    3.91268429837071   13.66841854464907
P        11.96157662925165    1.73246546647294   14.10210373884738
P        11.87487718740619    6.03823477585508   12.97644571426832
P        14.09110140865847    5.03451690855385   16.20316527941274
P        14.54404961909024    1.10716525469892   16.94680075931826
In       13.09299047203424   -1.03872804539223   20.06333015956802
In       12.81739458238506    3.72424526891859   19.84444931719273
P        13.20256805456964    1.33628007897506   19.73936001759970
P        12.21637446346659    5.74139071615892   18.69863692538188
In       14.76644280395051   -0.36611125098862    9.59077765133781
In       17.69198145735913    1.20390404105375    7.76022384262958
In       15.78534806997075    3.38711114720807    9.88013910017709
P        15.29987130812285    1.59775991805240    8.18745699060513
P        17.12004213398333    5.26153221557770    9.08624832786820
In       15.64510799747690    0.85857914930976   14.79950686493699
In       15.77731596370610    4.62476926461864   14.44369517441988
P        14.92757120295798    2.62829308163055   13.26073272613982
P        16.09380926759258    6.53462208769758   12.96631430146607
