10
 energy: -0.570524302738 gnorm: 0.000037795028 xtb: 6.4.1 (afa7bdf)
In        6.46632189108327    3.42247318823504    2.62742717537009
In        7.64949763740565    0.57092236450258    0.13905576347331
P         7.82535197736949    4.06348230136078    4.53211708629628
P         7.53278894358962    4.18379471515863    0.55637650082940
P         6.44895704368838    0.98709028064843    2.19557141589013
In        7.57500924548588    0.53708952805229    4.32477983957591
In       10.85119480252792   -0.04401181797342    2.42290106115083
In        9.64431938829431    3.48302018681633    1.57558146342193
P         9.47098985233803    1.74409599345035    3.32860838783237
P        10.77657982021585    5.37038912924322    2.59648130616193
