24
 energy: -1.339656379085 gnorm: 0.000541814910 xtb: 6.4.1 (afa7bdf)
In        0.45951505252984    7.12006631969450    2.42684810684174
In        3.15768911819157   10.81660244516014    1.98090496595037
In        3.35285678610439    8.97995301894384    5.35516895177312
In       -0.02470236532874   10.81437756245074    5.15516697790429
P         1.63151031444655    9.98405834497595    6.72873847658590
P         1.23016275014216   11.77400683241580    3.23147692646140
P         4.58425243624611   12.20392199745470    6.59539621648349
P         4.73008916603759    9.99000649422515    3.63900574324924
In       -0.50350060998050   11.88863181023145    1.49555221335524
In        2.63319947659841   14.20277374003905    1.46013017147684
In        2.88269961596840   12.71493323834099    4.88844696838000
In       -0.54565475754568   14.20125212240020    4.63465221807875
P         1.13009263486341   13.72092200824657    6.34353178279299
P         0.88205809971375   15.21991198929663    2.88588704995176
P         4.31323364507304   15.95947410820945    6.31768974690353
P         4.33994101476820   13.72262083306955    3.13840566531175
In        0.17556748549816   17.45377066592310    2.18141888669488
In        3.77159377095604   19.34084721882918    2.71107214938396
In        2.57430408240926   16.05018571204826    4.57861034511588
In        0.71617715567429   19.33997563258916    5.77956466403792
P         0.82604036757554   16.93900378244435    6.08147597600234
P         2.20405092322177   20.41588025315978    4.20613213985668
P         5.01284335262678   19.74033094455817    6.96589115525771
P         4.07655048421401   16.94010292529073    2.82931250214711
