162
 energy: -11.137790799007 gnorm: 0.000060236035 xtb: 6.4.1 (afa7bdf)
In        1.70248198650423    8.14353124720079   11.44187969876092
P         1.43561231481100    7.65341581623697    9.05272672957338
P         2.90567752772963    6.32156561421572   12.50936270286881
In        2.97730955298118    7.30292294704954   17.92181417105192
In        1.34602098294084    4.21696366414631   16.22542499191970
P         1.79600584753836    6.57755039800967   15.88149668976856
P         4.73677557729070    5.61445546663823   18.27147499757312
In        5.37040079007457    6.71801373764155   23.64556632663882
P         4.74002728453673    6.10587091412370   21.36254103339406
In        5.32948915837300   12.98682307247905    4.70454786243974
In        4.97433161677043   17.15422215047508    4.75854655535671
P         6.07765986332022   15.13738067094305    5.54156430989740
P         4.48414353306874   10.98969164948219    5.72849900077202
In        1.22918739742770    9.59055334778617    7.60926982786718
In        2.12727269408220   12.26838817029792   10.85945853630558
In        2.62003965323724   15.86055159740634   10.26640599223756
In        1.97753699444454   13.70932448441899    6.94215908906158
P         1.79358386244289   11.81022406013342    8.46692623278804
P         2.95795242884000   15.76764177071573    7.82598623262067
P         3.93171239545576   13.95400097771087   11.16269983932705
P         3.04820277072965   10.19409579439237   11.88165429378378
In        0.62851773667517    8.58280606035547   15.08644645063817
In        2.37403619679967   11.17347032771298   16.99306390893899
In        2.33980460053821   14.96992032557997   16.48844226314952
In        0.46367585200098   12.73364108228136   14.17503885051353
P         1.79550932809840   10.70676345740777   14.62522233937646
P         2.04631059324228   14.62560121642567   14.05197479512253
P         3.85699868857944   13.16124042252217   17.28998484884875
P         4.12117819044797    9.46873776597520   17.48237933908872
In        3.21365488496546    8.02441096594096   21.27154730878712
In        4.47340126384224   10.79838067372996   22.67557460391767
In        4.00033026348091   14.22002687913470   22.42692069808418
In        1.80460823539149   11.67378945404588   20.54103692339807
P         3.83049629116523   10.24518913273426   20.32564732776392
P         2.98281432550211   13.82120192680130   20.20165777222759
P         6.00526764919921   12.76795031213074   22.73705362281628
P         6.09394199622279    8.92225520276398   22.82424910306392
In        4.27524487222116   11.96480448173023   26.41016753416423
P         5.42985175476255    9.87908995398218   26.16369308918519
P         2.87825447639774   13.93536673082242   26.22978948824113
In        6.25704685412867   21.13639778636475    4.91257689579541
P         7.76518149600857   22.90944780858141    5.50189067009220
P         6.49383152906263   18.82898535263558    5.74032828046286
In        1.89917676560405   17.86152121671940    7.09423956108841
In        3.44722324116624   19.56803476732134    9.94777038679018
In        3.88593300810169   23.55942783931962    9.93032497695529
In        2.98270313380329   21.63380620936642    6.82711732384934
P         3.77806118008424   19.40641967378176    7.49922472892156
P         4.21955434631140   23.64264366987743    7.48899267656256
P         4.86071708891969   21.44167356586474   10.78014382116357
P         4.25461085757132   17.53774708254233   11.13211748983646
In        0.73701516384488   16.63423872918209   13.48870829648091
In        2.43309032412394   18.83304472523754   16.02572878630314
In        2.25499701884254   22.60432595764894   15.48283881349094
In        1.06763953652141   20.43807855985122   12.72766954882050
P         2.34605418627254   18.50084143979480   13.56719464091127
P         2.62317796588711   22.32467765035783   13.03802176958617
P         3.70230709982172   20.90721068799819   16.56972539036370
P         3.74835428865260   16.96073275063139   17.01293772108252
In        1.17388423401752   15.49598069654057   20.12193803558007
In        3.30886369970874   17.82001457303727   22.09633882514132
In        2.48918806372403   21.43890739654151   21.94495241835979
In        0.75823250671443   19.36574669688419   19.36270454524158
P         2.41662060143652   17.59914797383812   19.79252261114606
P         1.88106793279136   21.54415975053859   19.53896532927161
P         4.47921577041965   19.99790481574352   22.35229203118210
P         5.29227600061096   16.35022972162066   22.48743360698145
In        1.30954594569449   15.36434038194717   25.06512538689887
In        2.90394632808688   19.18759699210835   26.02306965758526
P         1.30806722989129   17.78140711510699   24.91557793189663
P         5.47259884420490   15.77259776428530   25.65778095966649
In        4.79236503166209   25.77972513005520    6.50427625709586
In        5.43576772522874   27.74563974233200    9.97308130513510
P         5.38956294022774   25.40893748520545   10.63976669975257
In        1.86483300407106   24.66521454518359   12.74041359464937
In        3.32937558153324   27.21818825885317   15.12259082963314
P         3.16214563935007   26.73253129908344   12.74636384464716
P         3.27250255463010   24.84904443036066   15.78388093270253
In        0.61173694374985   23.59201694812010   19.05046204037402
P         0.95217125402738   25.67076070743666   17.89248871354036
P         4.27388393189913   23.13833148194131   22.01010397989488
In        6.76009365982024    6.92104721501990   10.21835436265363
P         4.43577995063953    7.21919896429258    9.56338319336188
In        7.83750626281904    6.98358453337814   15.19710607977873
In        4.90546764181248    5.21379059158515   15.86896527858658
P         5.62496746154902    6.77350921324046   14.09064451445315
P         8.54075624284692    4.98322310909433   16.39157007008502
In        9.86917382825221    7.81181831316411   19.30483037874210
In        7.96531749337250    4.95343602123545   20.51648439860120
P         7.60910896107928    6.82489531548978   18.96189131527773
In        8.58149294348882   10.12892991725558    6.12430934548950
In        9.99226186385626   13.92344249855723    7.38895311444301
P         8.17946950231941   12.34703934742098    6.97545954032586
In        4.12332737224522    9.65620217654557    9.70642396266060
In        7.34339539218255   10.51145619504526   10.55955603963742
In        7.76812687221668   14.23243199638404   10.70272800677789
In        4.97148858023619   13.19832096596474    9.04201543658501
P         5.93054329807568   10.92766749697964    8.56546708469001
P         6.84679278676622   14.74431171106203    8.44522261207976
P         6.62530830729048   12.42136079470888   11.96699761130904
P         6.62574739537331    8.61108683336051   11.98753885070344
In        4.47307287373614    8.74197419661915   15.13977616917008
In        7.39312584155287   10.65791838090436   15.24599400840561
In        7.42334506569983   14.51475529906092   15.32861872202676
In        4.49304384270013   12.63830652422422   14.94172456951869
P         5.39196976525759   10.60543059662138   13.74981709197820
P         5.61669404854529   14.45574252744597   13.60668830407285
P         7.10950075401375   12.55764641374520   16.82598899866932
P         7.39171958110585    8.75870936039649   16.85974085439189
In        6.59436252732909    8.63082910233028   20.41364746198612
In        8.98047870714469   11.31797497779529   19.77116358034267
In        8.56334714524221   15.31365080145231   19.71798712502685
In        6.02588013266680   12.60414386652300   20.25816006260937
P         6.74769111805729   10.61689966814044   18.87136654094732
P         6.41473820375020   14.53014356910388   18.68711403327473
P         8.96739560590614   13.35036528449233   21.19438631078043
P         9.62320118114902    9.37965012488570   21.16693466049196
In        9.31747766637443    9.45828381856366   24.89678885170371
In        8.62273898366672   13.14026653220191   24.91144001114266
P         9.10524370239720   11.30243348212404   23.32898605360747
P         8.25052673752799   15.07390294412460   23.43117512721952
In        8.53331670626422   18.21848736348427    4.53769923884183
In       11.15593928585944   17.78178125005815    7.63870526741001
P        10.26281729053347   20.02046700860408    7.63702816024220
P         9.29256318031466   16.21774799334599    7.90153209479076
In        5.73015582687951   16.87700850719625    9.23130478831000
In        8.41579648382440   18.03741320216572   10.86383004867726
In        8.95152329014837   21.79440341160949   10.89900848251716
In        6.43834661800685   20.72589633173039    8.99979129487897
P         7.52952252371634   18.50736268840267    8.58608833281919
P         8.33209582930444   22.30380244021399    8.54992287245640
P         7.58087572729389   20.06549298518549   12.03065655422907
P         7.11491338187838   16.24107999282705   12.01142253197427
In        4.71625318800219   16.51863805339066   14.75963148589118
In        7.67325748638585   18.53217361571153   15.32499819181722
In        7.57727091470176   22.69114039609730   15.48066345698843
In        4.93995428853576   20.42819875938444   14.47345078149066
P         5.96086597959227   18.32151563862037   13.51845223930978
P         6.31604037830362   22.21766927528564   13.36675904202932
P         7.33867703559944   20.55225145512171   16.69458474359121
P         7.21343099205248   16.54609861440536   16.73929176202643
In        5.40802905023526   16.40916491123620   20.01255269374691
In        8.01960509492525   19.06629825283991   19.90594885771470
In        7.20147836240352   23.15139433937944   20.20747262419945
In        4.86798323554420   20.18964319355312   19.91776908968902
P         6.00509376924664   18.39043990928631   18.60760572834294
P         5.50897428416174   22.23005435861630   18.61239145185650
P         7.75951083701158   21.04805488543334   21.34419971185466
P         8.16465902072607   17.09665269125011   21.42200349197492
In        7.56851737049488   16.83348010741145   25.05526960555806
In        7.01429136998679   20.48804515540407   25.30677654465097
P         7.55228914007347   18.84985634603822   23.61026895473581
In        7.01256122422803   24.31465648847727    9.12604861087179
In        9.97960778280619   25.43043270930544   11.08903451961634
P         8.35809553033655   23.91057108064744   12.04565596192999
In        4.97484598586730   24.21382290469983   14.09765340340768
In        7.31083556340490   26.42928481369447   15.76592258121338
P         6.45216541704872   26.09733480513352   13.52213830550538
P         6.53640568145863   24.41628786411099   16.92591028722247
In        4.09035691689559   23.97031442691786   19.71543733268157
P         4.83698181349870   26.19996756344129   19.05498664597904
P         6.81904606173375   24.97472022620022   21.77325579702276
