50
 energy: -2.496550283656 gnorm: 0.000138212876 xtb: 6.4.1 (afa7bdf)
P         1.78848466337568    1.78981382578653    7.50660929046883
P         4.55281551910161    4.54762192821171    7.40423354439131
In        0.29503459799697    0.29435690858491   11.42206081939302
In        3.37654519272983    3.37869706817404   10.89543774641667
In        3.84623494038374    0.90551565674623   14.05991683223174
In        0.90049929136795    3.84796586411463   14.05741817701847
P         2.82208757883655    2.82689083572796   15.12257799771842
P         1.79644269705274    4.90708926769186   12.01477077957127
P         5.07878618362358    5.07933731543744   14.85103374824735
P         4.90452130787469    1.79877406477675   12.01557273993429
In        3.04448511338350    3.04137000515567   19.13276122171189
In        2.98621203435941    6.38322347160153    7.37576334196600
P         1.59011186894767    8.32464449643042    7.41958338987315
P         5.63941129936919    9.47468831874983    8.42980272793725
In        0.14532666847149    5.53786077208336   10.33243729698022
In        2.74498158202799    9.27288007090204   11.06012065958083
In        3.43773586676070    6.23687744959576   13.37155946755273
In       -0.03922386289278    7.75633049290713   13.52703393632421
P         1.86003500744335    7.31356464920152   14.96845324039929
P         0.40992302354577    9.26350295662954   11.68843970542848
P         4.07317044608855   10.08041997445948   14.68255919041444
P         4.47175156584647    7.58750837431730   11.52955980678354
In       -0.62425394417621    5.49387414907686   17.77222493198616
In        3.06089586292233    8.33272474954498   18.47273580087474
P         4.05016638314698    6.80158704914632   16.87069262755763
In        6.38865770852023    2.98141077547718    7.37482053643053
P         8.32822804499835    1.58283590756639    7.41863034107013
P         9.47340159671680    5.63995267327963    8.42837292657073
In        5.53420234984076    0.14673046669579   10.33374027966669
In        9.27226618528197    2.74539523859721   11.05768651125382
In        7.75654580473559   -0.03764054591062   13.52481488603850
In        6.23698626334327    3.43947981162099   13.37057357023962
P         7.31426627178609    1.86134017757535   14.96664931859888
P         7.58752160829812    4.47262073948492   11.52808390675214
P        10.08243833542880    4.07210548610018   14.67993451237507
P         9.26229419899387    0.40988224852275   11.68477316157706
In        5.49778160964454   -0.62570753336121   17.76973059496674
In        8.33474996801999    3.06180308411514   18.47079351861711
P         6.80243606078460    4.05054709812035   16.86964802599490
P         7.02977084387178    7.03121983130569    5.56782842360054
In        6.12323262523006    6.12420314989460   10.45868598572479
In        8.79973949047934    8.80002150126879   11.01239996313967
In        8.86056174843164    5.68977617400655   13.31850701885986
In        5.69023923337032    8.85875250878759   13.32027613391355
P         7.30233140379016    7.30065016563164   14.33160567539593
P         7.04617753634923   10.26049215223633   11.81022569753215
P        10.53453043256047   10.52929312960492   14.17582501738238
P        10.26127246226225    7.04638219110169   11.80804857578239
In        6.00191471559057    6.00148273759023   18.14748215831266
In        8.87321011407858    8.88678861563805   17.65300423944888
