38
 energy: -2.422078410476 gnorm: 0.000589936604 xtb: 6.4.1 (afa7bdf)
P         7.00552870945668    4.68135558527105    4.30576130210433
P         7.02709751499328    0.70493810459742    5.14266574740562
P         7.07674158937016    3.87401198846031   10.37315196524278
In        7.67584435121378    0.41283486606098    2.85277984791756
In        9.82948375325826    2.67786338117112    4.40985367972983
In        9.68058351881272    7.31774546909208    3.71176311303686
In        8.04904564970771    4.46222174218663    2.12620216366821
P         9.14204928714265    2.22723404447360    2.06469764147307
P         9.00942638051731    6.63122845743178    1.47884198115712
P        10.49955926634440    5.06703672023139    4.28267698518262
P        10.58827622208578    0.48574010323956    5.23687552794632
In        7.72051774988987   -0.74330658111397    8.66297314683647
In        9.99235025427368    1.74579770755290   10.26049746199839
In        9.77369521015537    6.25791531147599    9.16570290773046
In        7.90056037952591    3.51199839022226    8.12673265672607
P         8.95441180081485    1.26315242021338    8.05109459200807
P         8.71533534425845    5.58072115145198    7.07437056417432
P        10.67136215623894    4.12232696219160   10.00837634045862
P        11.05586665263067   -0.41214350605554   10.78625479995487
In       11.58839352644657   -0.03676261377315    3.07742862222714
In       13.15191109570944    2.67978281400077    4.57213011694925
In       13.52133966680188    7.27710604186504    3.77442217030656
In       11.57696680577209    4.58345158126965    2.09909161098808
P        12.26854007104203    2.20328892642981    2.30096960681121
P        12.62390850604892    6.74744293819702    1.58862202310145
P        14.13018165752018    4.94934971079303    4.27941178118559
P        14.72314941240302    0.82843361591743    4.69030667402212
In       11.75710753757671   -1.07547066447959    8.55953095856165
In       13.27443033752324    1.94439025314154   10.04728898670289
In       13.48178922461738    6.33494896250527    8.84327682614383
In       11.35331002703807    3.59588537676446    7.69206537281748
P        12.17861499962296    1.26070673386936    7.92065119926388
P        12.23463258307392    5.73901458418478    6.84248750271304
P        14.31631008779013    4.10535891353882    9.42175179649823
P        14.89766359158221    0.10530796728846   10.10503029872002
In       15.55395046193220    4.34069185471166    2.40138466514010
In       15.65353890751588   -0.88555567846272    8.06660658130934
In       15.76353820930659    3.37107636398625    7.62503078174400
