132
 energy: -8.652815638301 gnorm: 0.000494885597 xtb: 6.4.1 (afa7bdf)
P         2.68086046035109    7.33839359723097    9.28462388723655
In        2.79794563740411    4.67913890731901   12.04095776002386
P         1.40888024185957    6.51841361276436   12.78439289266515
P         4.83499200627460    6.53880576608693   14.65747521380959
In        1.92495514606749    8.79826083987696    7.49777017464863
In        0.84085956949884   11.32507187414906    5.05430325719562
P         0.80906474110130   10.97882357893053    7.45486501574549
P         3.12056856253846   10.48810832094028    4.79603894973298
P         5.40551186746406    9.92530119732761    8.30724823593908
P         2.97374683776821    7.50849715812842    5.69674193365347
In       -0.16360700771334    8.02762888016874   11.73062151168389
In        2.92396453603676   10.82476080444791   10.83272115227639
In        3.13496868575508    8.05393949119149   13.71749891890841
In        0.27891437690821   11.51270743664678   13.74459583287733
P         1.66659114138620    9.77337865438453   14.71319631068058
P         1.37560231895236   12.49927521463887   11.75348667994518
P         4.15990790716647   11.91055889138824   14.38104083689050
P         4.26184905227188    8.91988128793936   11.63918733719035
In        2.13214352185383    6.47680943929510   17.77288848591226
In        4.89322031198959    9.75816570759653   17.17334915041750
P         2.62893936449977   10.64444344379860   17.58720306472788
P         4.87137741621297    9.43896857035930   20.53991556168131
P         7.27121832140598    9.17274032919645   17.42967209092084
In        3.64188974542887   14.13629567976701    3.23821606848346
In        4.32849658960164   11.49851654177919    6.71560685025011
In        1.99796616815060   14.80933020732621    6.67922812314624
P         3.22949224373160   13.25993459548889    8.07808304549809
P         3.21681874912187   15.91342622069125    4.86561595982163
P         5.06284494602837   16.27044169201140    7.97320047170126
P         5.13068957342410   12.85021823353715    4.73684710858876
In       -0.33432842389755   13.36854155525721   10.24782998811074
In        2.47117570723525   15.99713411878155   10.41050021297954
In        2.99501949324336   13.75284616486545   13.22104458102998
In       -0.71412117179581   16.26080782810254   13.15987227799901
P         1.13212885876364   15.06290880286788   14.15677578687451
P         0.64113437528877   17.35064497754195   11.39242390058851
P         3.62319203818135   17.12550049851527   14.88761548671413
P         4.40596549160177   15.04330567186111   11.60150786360072
In        0.27805543076875   11.13569364487353   17.94989221932504
In        2.97191097252365   14.20766738730237   17.14131691519887
In        3.60169145284789   11.40534099031467   19.76962624796857
In        0.89872845583046   14.05107468422328   20.64567390938439
P         2.66142277331593   12.71202252452199   21.64584606753870
P         1.38846971176380   15.37515365626766   18.61812607194713
P         3.95900166998252   15.84965956504436   21.78009650046282
P         4.79954024262665   13.07927050284692   18.32358354935713
In        4.36013818352568   17.74378315876920    6.11658364997685
In        0.40051330686201   18.18548991757703    5.07042452853169
P         2.11769661300172   18.62888094369892    6.68017234326811
P         3.61346998653108   21.80867729585439    6.89552019758303
P         5.38518620358916   19.20134269826527    4.37445644005892
In       -0.82670892203674   17.65333102205153    9.44796467088281
In        2.78964229732625   19.46132733677958    9.91820523554452
In        2.34050909840605   18.20024533239739   13.06311645266819
In       -0.84314181762717   20.20920889371759   12.75245823406352
P         0.77997603893278   19.54660861169816   14.42968498073966
P         0.86081877003123   20.59963979877590   10.99673722492919
P         4.08087722426005   20.86375525664558   14.11004982184088
P         4.33919429259470   18.45135646169500   11.56511211972820
In       -0.11699198950711   16.88685089030662   17.42711737734833
In        3.64336421587420   19.83547183213122   17.64297477939689
In        2.87029801992477   16.93914916009343   19.87950283660921
P         4.63102181869821   17.67901942069139   18.25660509594088
In        0.07151276356863   22.08549912332043    9.21624450263438
In        2.46946670491413   21.75776442817567   12.51046495023606
P         3.80709316581647   22.69702808619179   10.68942350347868
In        6.64369790450974    5.14672889485357   13.85205943555381
P         7.84182178547822    6.12121521741724   11.94711898341030
P        10.52732466441080    6.71214255011676   15.10167535797404
In        5.19779898525634    8.17579804579616    6.56780505348459
P         6.45822137049974    6.17288402989560    7.21747884001364
P         5.98891881324764    9.52371624324283    4.61985165135577
P         8.99237632343900    8.92880814553836    6.88798969742649
In        5.99269001250129    7.32802486501798   10.90165937799319
In        8.54721047143510   10.21254332713317   10.39179894829751
In        9.29359898285282    7.68857404041852   13.22637161452734
In        5.60726997147072   10.20637585530000   13.34476000973512
P         7.30962288627529    8.70397284563069   14.30343442394282
P         6.80695074979054   11.49434123877028   11.56651265445815
P         9.21551000313028   11.23130818388496   15.32358225990358
P         9.92138609662447    9.93571893053160   12.37606097570759
In        7.42318301915054    6.73824832917128   17.64292300998519
In       10.71739820290149   10.90704003348625   19.06397066657570
In        7.21598134313869    9.58831667222728   19.87773947716835
P         8.48554129748451   11.72243094710660   19.72258639927544
P        10.63084060145560    9.11200053152238   17.47197953202662
In        6.04151328758177   11.36184659884997    2.97698976401354
In        8.37601045006750   14.29011118493052    3.77501737169485
In        7.66420693981797   10.78443234385996    5.98639745433095
In        5.89650673227429   14.54545609637305    6.41282046375986
P         7.39632550389888   12.82001084965229    7.35834029316135
P         6.78537600627071   16.00440467752280    4.57732699570480
P         8.89638435056949   15.98294766757670    7.81564887639278
P         9.01896859018104   12.01805440865534    4.32059617393986
In        6.11561296805145   13.62575117062160   10.57464622150198
In        9.61276150321896   15.41379184770505   11.66450414639229
In        8.05665667127729   12.46340712654525   13.54329558596290
In        5.46343391021821   16.05868969254587   13.63563398967995
P         6.51779633826632   14.06256447442615   14.61745748567393
P         7.66954636781381   16.64004912404637   12.57416115881665
P         9.60880223047798   15.36121900931686   15.64098944834868
P         9.88709002851644   13.02073587094016   11.96666996915158
In        7.16197138917116   12.57668720355507   17.82044092528768
In        9.92127611273936   14.50575789197394   19.41037096604429
In        8.33493152210685   12.50207055748761   22.08042156841352
In        5.35622427388816   14.32730042761871   20.42548226414357
P         5.88475575041360   12.54920984284628   22.03854704573369
P         7.56412873274956   15.26574412197288   19.66541357256652
P        10.44504801891742   13.68214084638152   21.65107100489051
In        5.77586540531823   17.37222904205375    2.79205575299564
In        7.77113412160680   17.51573044784408    6.30253541457764
In        5.72652787956311   20.91059063718884    6.12521084497138
P         6.87977375059830   19.37349586267502    7.64136458683439
P         9.65172362021799   22.63654175124263    9.59354440173381
In        6.46764644067038   17.57898394918869   10.62892692221889
In        9.66951995848504   19.27766273726105   11.33607514989360
In        8.61809972019471   17.42035057480932   14.75977964590357
In        5.84721227353046   19.29706587545923   13.39245899562216
P         6.78182491478700   18.85022722992835   15.63134835189750
P         7.56674926827616   20.42590386172246   11.94417413491593
P         9.82693241673753   20.85510266764943   15.79131241262500
P        10.45550589824171   18.44536825695129   13.46806137554876
In        6.35224493003274   16.00638581357315   17.63260103491335
In        9.89854555279040   17.98990680839340   18.86659692834556
In        8.10565979208426   15.96133376316692   21.99803898258572
In        5.96494991464680   18.08999505574479   20.34330428228170
P         7.62330078360957   18.89099377340412   18.69499307618618
P         9.97288660772249   17.31984505804277   21.19518794293465
In        5.94544086427242   21.59070599390509   10.50098088524431
In        8.32415957808445   21.58199173562269   14.02956363854239
P         6.56637677531752   23.16780206592796   14.53623439930226
In        7.32396728655345   21.30183166056758   18.55782731823008
