134
 energy: -9.111120841521 gnorm: 0.000664059915 xtb: 6.4.1 (afa7bdf)
P         7.28023889236023    3.37974599691600    6.33425024003621
P         6.13593892066140   10.61393547316299    7.46918971624328
P         7.12394725040715    6.62382446950442    6.08438574710085
P         6.70673503335792    7.50767527960217    9.04651814641389
In       10.79090785588414    3.53149392444797    2.60986984264009
In       11.36768382253562    1.20627756729266    6.55954099492969
In        9.58351317810964    4.14120061378304    6.09715317310099
P        10.82161365196391    3.11599096739200    7.96592595890599
P         9.98625776293357    5.41655322980798    3.97234924414858
P        12.31372817657759    5.90004279753559    7.06941657633947
P        11.94638731127288    2.19039073237230    4.34680776380179
In       10.04320139743372    3.04053160420556   11.45812235485749
In        8.41673334826899    3.37279551467974   15.05869690674211
In        6.35519031239570    4.63239087695591   11.61853617739306
P         8.75046647150380    5.13571005790896   11.47951639630328
P        10.28448826009303    6.53230761699538   15.24606994327092
P        10.48487772796049    2.84481759461261   13.87192277122194
In        7.57739433227314    5.95221256095435    3.78669947065544
In        9.59647024272997    9.24277746771194    2.59074114728183
In       11.25899754863063    7.15306496167578    5.22075950915929
In        7.32666727289093    9.10873082592391    5.94407382780466
P         9.71838878156155    8.66494590617576    6.39598377554849
P         7.95608513334571   10.44055037967801    3.93755494959671
P        11.10088304582617   11.48213896743848    6.89095359071549
P        11.88611784881468    8.70411819582480    3.34405043587860
In        8.78901510238756    6.25480609290604    9.26757414166038
In        9.35282337238990    9.59909237340203    9.65239885521962
In        9.07858156253113    6.97773611102763   13.13855831753706
In        6.34671960661625    8.49013862426305   11.26258513085392
P         6.92035295221537    8.07046721890151   13.59612175177455
P         7.52332500420838   10.66184168038085   10.93629498475870
P        10.39413241004030    9.77791881224856   14.66014458052710
P        10.40185571609482    8.25537257751961   11.44394261568950
In       10.02496518610038   15.16528961280697    3.22742533858903
In        9.28541165245448   12.04549131205269    5.30861998472342
P         7.94208882267795   13.74538342547180    6.44343711385824
P        11.61948990411645   15.09882012915164    6.87367813915491
P        10.99769975430196   12.96680148669051    3.71598088156163
In        6.02869509169877   12.58518955411441   10.88964843432318
In        9.89888635118561   13.45991348802009   10.11036550528499
In        9.03211388126831   10.90432298267442   12.93348705426532
P         8.59224599178179   13.10859956785955   13.90201135980034
P        10.92246152875644   11.68738719666055   11.45611729775190
In       12.52640480198221    0.12171171090070    3.14869300686827
In       14.49628194397258    3.46808545180978    2.50960521225432
In       15.16931377845803    0.90308599787337    6.46989655710355
In       13.08514927488069    4.05614470370549    5.60198993975914
P        14.30951665466878    2.94741449746548    7.44774584551487
P        13.62698063014639    5.51532427370893    3.62591320656617
P        15.78614395873301    5.97272617282193    6.57148226803550
P        15.40941444661146    2.09875516708133    4.33831731975505
In       11.82516471446993    0.86813382916635   14.37140475728188
In       13.88314268878112    3.12151947167516   11.19245811847231
In       15.20566890102782    2.62245351138042   14.69246169900739
In       11.87785110359713    4.86013128570114   14.39387345408135
P        13.68178639283742    4.08735668352913   15.88925855664891
P        13.05265177744058    5.19662507858156   12.22262534175773
P        17.01168356597477    5.35156475994468   14.85365612467722
P        16.03121824222255    2.70740900156295   12.35136683386171
In       12.83854227343926    7.01305686095169    1.81359114864063
In       15.66052835930815   10.03292989889730    1.76783608057183
In       14.53951894362630    7.41471480664574    5.00946570210943
In       12.46366775414107   10.40570878333420    5.10643093338896
P        13.56795040110148    8.91466156973864    6.73506951853909
P        14.07556741795836   11.13783815655851    3.31817778900706
P        16.81965963466276    9.44758502397796    6.56742995766382
P        16.13203864316238    8.08251501181908    3.19746121325304
In       11.80388833012428    6.44012268040807   10.50334718867826
In       14.95317208897335    7.41237951703278    9.82957470096335
In       15.02141024962696    6.03123216898367   13.53587280075295
In       12.09654114520358    8.63134856906470   13.27675032678321
P        13.67156712910475    7.60094878610888   14.89477784484958
P        13.88695700144301    8.85073075889200   11.53015681904274
P        16.94629209545380    8.80671486255933   14.44074495086663
P        16.34452350153077    6.08371842481620   11.39747358084338
In       12.29495395056915   12.02495030171960    1.83919553211513
In       15.52366374650126   14.12126655430875    2.15083407339620
In       15.79632132714371   11.20674180247328    5.15767676489200
In       12.83942499965374   13.69050600487623    5.28189743868903
P        14.42330526240469   12.49035869648109    6.75833337423738
P        13.92917746365509   15.16013952479080    3.63471056563176
P        15.60472241138656   15.88501838335605    6.85350067883220
P        16.96718773566040   12.89175751102383    3.72766667932453
In       12.59415189665395   10.43425714093595   10.12893412084477
In       13.68541079626022   13.77369620385562   10.56753298397431
In       15.26660864602539   10.11818206756209   13.18423733838094
In       12.27543837764378   12.32656154596505   13.45467191390524
P        13.76498383510993   11.03819010286971   14.91992585378493
P        12.50603871617349   14.59769114835690   12.53785437494639
P        14.44297876278533   14.50233122816655   15.65901498342589
P        15.17611688678796   12.11310916854785   11.65581692749575
In       18.23249298075545    2.32489269292995    2.08865391571835
In       16.62196712402696    4.09344539681248    5.21843574583338
P        18.30869108941047    2.88393488548800    6.51028955389044
P        17.75797171774358    4.52833021282852    3.02939105907840
P        21.43819265581714    3.35885017535163    4.70676685241903
In       17.04379960384772    0.78409513532029   11.21923649467251
In       20.48309579507994    2.33544138497141    9.69779511263924
In       18.07933556071080    3.99278839883561   13.06821693795469
P        19.52346981942999    2.32795374794600   14.13240513646274
P        19.21259797198537    4.09065934171374   10.82135771587281
In       16.69772366480101    6.25376528064380    1.64113419243578
In       19.65787136440895    8.73077938721108    1.63738661109922
In       19.94098789589886    5.18764204170981    4.07522990653607
In       18.04172097698559    8.20019221437098    4.82122248020449
P        19.05463816986183    6.31672240857488    6.07383211892788
P        19.03175912609094   10.14889382838817    3.57800591627687
P        20.24443428156383    9.41365399714417    7.22531885727918
P        20.90114710621249    7.30491666294829    3.18745941893204
In       17.01643064745867    4.37483770324242    9.72734640190552
In       18.31882397474725    7.44941698766876    9.26919182599085
In       21.02388045651928    5.66436596419952   11.46685195681091
In       18.01154053995367    7.51906193655649   12.61669525915200
P        20.15802672040547    6.69175716943095   13.50905864910907
P        17.59100507539566    9.23578168214950   10.84331278045273
P        20.39567373313402   10.05069620358443   13.23686667355292
P        20.78227983718647    7.19605226697971    9.49804142882390
In       18.99596684940158   12.35573309079971    2.43351654751011
In       19.49474432226394   11.29065581442293    5.77457864494851
In       17.20344437637814   14.46039609587201    5.66733799408368
P        17.97537595451910   12.66309145107281    7.16424505100289
P        19.22410606708855   15.61352370041157    4.92098134175534
P        21.55026243491376   12.49992715150288    5.24298817512585
In       15.96378208222313   10.74990858432030    9.73853161177395
In       17.30162747978159   14.60219476136529   10.33751181855129
In       18.29880840025669   11.06598681742932   12.42100415545365
In       15.51577549312080   13.66302494388851   13.61240544027290
P        17.44946771357870   12.32421715232099   14.36995939100376
P        16.02458766048665   15.58743546499065   12.14280004725608
P        18.62059840174659   12.54181958236193   10.44989066576967
In       21.40901676390187    8.57341875160728    5.23425958002912
In       22.32803945019462    5.97234736213068    8.04071784522817
In       21.00051911534134    9.08118226332536   11.09426774901485
In       20.94918191569979   12.65551171440018    9.77166839026127
