30
 energy: -1.863265799982 gnorm: 0.000780381394 xtb: 6.4.1 (afa7bdf)
In        6.61189390802319    3.37946129630198    2.57441830357337
P         6.82492892797160    5.04740410024488    4.31571816810960
P         8.39369849861195    3.54965314913431    0.91141344156789
P         6.61148638678067    1.18983389100872    3.66521725915231
In        6.75971439383060    2.23955190290573    7.90828469189016
In        4.26564177495211    0.28214224309093    6.35390492820895
In        4.30804960558224    4.53881709058302    7.17977510030177
P         4.31903675927445    2.61753691353637    5.68472727946868
P         6.16298257419862    4.48138850456621    8.76570850708922
P         8.48333865924756    3.27605155238694    6.48202046328537
P         6.34324114100017   -0.18118988027060    7.57019358370137
In        6.62878757722047    4.14098387381154   12.27972898228498
In        4.17972532714774    1.08384406303905   10.95753696202482
P         8.51273918162179    4.33534179672897   10.73755857734288
P         6.17111706255274    1.73658191482636   12.16974903813484
In        8.37429425267402    0.16496410170135    2.34302120958301
In       10.07931405238826    3.58720590716985    2.68325307277958
P        10.02615649007839    1.34381813358787    3.68650580248773
P        10.40869572839658    5.36732521639094    4.30882781969034
In        8.54024457501332   -0.90124711977934    6.77131922767408
In       12.78424370911832    4.30814313470566    7.24294510648572
In       12.61754997696489    0.67422301689473    6.36262719518066
In        9.96580548944170    2.22447582423856    8.15018696618806
P        10.67623914079808   -0.09526752441161    7.64844095346147
P        10.92953386602960    4.39065642512263    8.82504140211078
P        11.76630206262936    2.83519023069449    5.55978682785268
In        8.39277496436373    0.79933800713083   11.77000659902254
In       12.61320183045069    0.84702642170063   11.14993890262943
In       10.34082576840817    4.06174775849704   12.33304441040623
P        10.63146812123807    1.63003566298027   12.29919921831230
