130
 energy: -9.149939199561 gnorm: 0.000064733575 xtb: 6.4.1 (afa7bdf)
In        7.37206384366677    4.73968144102657    7.60234445143490
P         9.43550562960292    5.44093390580125    8.78359682635718
P         8.10414509872576    2.83626956217353    6.28042480020127
In        7.98985639579663    4.67397968904844   12.42326065117668
P         6.77839394814299    6.76203196260388   13.05441502720213
P         9.94106863181678    5.65453117066426   13.66288230818709
P         9.14843378815992    3.25441680310591   10.72501867618233
In        7.42516496991368    4.33302555333163   18.13702936303049
P         9.72732763573461    4.74366100208593   18.91988568563026
P         8.17391769388789    3.77945283920691   15.87713888511346
P        11.33664326315484    6.80121561249130    3.99347645334693
In       10.59469034725704   10.36307914818393    7.30205939762317
In        9.86241921926880    7.32160064366652    7.19956663090460
In        6.97933163157999    9.29539650745851    5.93621218009176
P         8.87902961047104    8.05591791330814    5.06050407894968
P         8.20183618825404   10.04375015196916    7.91185428357330
P        12.43750601248575    9.47185388625838    5.89598321879676
P        11.35744724011634    8.51489122653161    8.84075572164169
In        5.80888449768373    6.81334939831993   10.80167512176824
In       11.36078919730439   10.73704907656442   12.26211072117481
In        9.75559639767685    7.56234580299742   12.04409625365546
In        7.42775775573330    9.79764579706009   11.26144902474455
P         8.07824268969095    7.63162288644401   10.20281143204491
P         9.65494629789389   10.54369813278275   10.47507534566808
P        13.10147503659651    9.70807793015259   10.80180099467941
P        10.95497224903310    8.84964625126193   13.81223547867482
In       11.04118573937787   10.15799062051357   17.65267793506798
In        9.75308488195521    6.86159411263965   17.59496945082803
In        6.80705425072404    8.37961491989643   16.94421344321028
P         8.27516335730097    6.93842163473779   15.58951091352444
P         8.64911241774878    9.96820500731525   17.11911871705638
P        12.74428140188356    9.99042420588528   15.86118047529890
P        11.71742480762911    7.97736765128442   18.64468178662554
In       15.44055033297535    3.37517342748893    3.58704546480060
P        14.81955857813265    4.79897255469736    1.68941538513071
P        17.08991326039774    4.99003527964780    4.43273824684115
P        13.32511934670972    2.57437245862430    4.48462070216857
In        8.88039979079842    1.07182776410503    7.76160455443405
In       14.37806039147405    3.75207242678997    8.22764535567270
In       12.69230344947403    0.54881692055731    7.65040166496080
In       10.99156446847697    3.92850529928200    7.54362772679560
P        10.96021674555454    1.81005687604336    8.86894818179220
P        13.02782620883038    4.95600222771798    6.51487816341860
P        16.40161518886693    5.13107409717506    7.85830685154051
P        14.74951849313430    1.34809792000811    8.75169014297525
In        9.58735709105726    1.49425978146527   12.40519662254922
In       14.70699295400266    4.74271181828390   11.69265644049397
In       13.13364383850971    1.67782341643560   12.72505878773813
In       11.46178890279838    4.53840144346061   12.02524406585634
P        11.17582351201127    2.79990010106470   13.81232813962219
P        12.86726363263715    6.23022500158236   10.84030758658708
P        16.41745408761556    6.26680813707793   10.61074897992676
P        14.90917680247270    3.16488064499856   13.63065332191803
In        8.39703996584138    1.35833559452547   16.12350141379603
In       14.63876931457149    4.28248700210272   16.63012042381840
In       13.14457915465645    0.64134233682080   16.97560053318203
In       11.13614117377965    3.64388897382473   17.16976738061386
P        10.83628881012993    1.27592063020919   16.42658471007313
P        12.48135297456076    4.94789216280456   15.51673872499113
P        16.61068363037815    5.08646583017299   15.32681351902788
P        14.87060832616541    2.14457691191325   17.86399117888173
In       14.95246868170181    5.68140350514150   19.88957855483917
In       12.64721950762820    3.01172712578875   20.82567824493792
P        12.48070903957551    5.27364781673229   19.85595689012600
P        17.39207502768531    5.36052326805172   20.28285489663856
In       13.58116654491861    6.23495247873889    3.23990829979936
In       16.79761409387560    7.16406550674086    3.33837251414649
P        14.76073108404975    8.10693950406043    4.34463150130221
P        18.76682697660809    8.50070112590785    3.83225203473016
In       13.14383624357821    7.07229142435876    7.81887684706824
In       18.41802164097563   10.41425281882030    7.87353872243878
In       16.61879235887915    7.56178377939510    7.41079888764123
In       14.10740441155394   10.25874041503669    7.54614825375724
P        14.91723565626511    8.40229661315674    9.03650515371765
P        16.33580454782971   10.78538278271228    6.63542827608684
P        20.45411524141665   10.72668548922194    6.55653793106685
P        18.58373160079383    8.12907608367111    8.86343415987217
In       12.87215634255750    7.48368474063636   12.98365647855111
In       18.43474186021288   10.62327264472828   12.40194334074421
In       16.41503341693502    7.38546327755000   12.84503186464095
In       14.95935864319461   10.46612805443839   12.28259512421977
P        14.70743065455085    8.75047463467163   14.08197796692101
P        16.80056251382459    9.67618420819963   10.78106474009494
P        20.85861892218576   10.71600548089616   12.87657629993251
P        18.22451227614898    8.69407070990271   13.96923884670193
In       13.04367984276302    7.04738443399020   16.75698955680469
In       18.30822545410970   10.26289792276678   17.68328052047049
In       17.13671214200612    7.03090166048279   16.81371663865411
In       14.63152560690984   10.52435886131874   17.39568597484235
P        15.07244528268306    8.09157154640211   17.75524384294414
P        16.56283170542559    9.97470486945017   15.91608584668385
P        19.84833037621980   10.57248627409654   15.77712525372689
P        18.08536802159873    8.07797162823293   18.86306389834876
In       12.46348200424432    6.62259468287390   21.95367869523074
In       17.04593244434920    6.75922265612006   22.30380360349887
In       14.73000607094531    9.67279725666958   21.27057814951427
P        14.70624913096823    7.53684984264939   22.43663662086128
In       16.49963803235022    0.69548925352111    7.15273502440752
In       22.35015629935516    4.07613127485168    8.20045639530454
In       19.98206331690720    2.63911479499686    4.74572997476969
In       18.44923047578505    3.74673835117413    7.76853170786393
P        17.80429931854306    2.31152240115688    5.83948569323197
P        20.21556786067084    4.93764920698495    9.05750988654821
P        21.71671250497694    3.91592372367441    5.86338092012941
In       16.55724380810807    1.54251170128626   12.73544299187345
In       21.23073132931632    4.47283529959657   12.21769661895944
In       19.56583682964171    1.22780399088429   10.52004716237916
In       17.88971183442543    4.42463562148265   11.45660820635831
P        17.29790654251622    2.20174522734997   10.47876249464666
P        19.16227006853944    5.17093003277643   13.44932420531168
P        22.63355486750480    6.08955802683852   13.42039316966515
P        20.49260123604661    2.14273633537715   12.57407034632951
In       16.91333222065693    0.90654724239806   17.30260318650581
In       21.94146040903249    3.80617575436089   17.59534074003200
In       20.64677873645418    0.89658182794272   16.06279569143581
In       18.47267364428315    3.92617995887974   16.54414112144725
P        18.38275285242767    1.67149001600975   15.47885867801137
P        19.77756594556191    4.41441453742367   18.61543285970316
P        21.45316243664468    3.08857955664651   15.30301502691010
In       17.20313129117137    3.10136770260858   21.20718756373696
In       20.01561480066016    6.74535968464532    7.35563454495120
In       22.41032204952943    9.34132267645683    6.25711516087588
P        22.08895051401312    6.94350947859548    6.04856699356469
In       19.68741124501862    7.39951997094195   12.41022794854435
In       23.08933505385516    7.84943815144526   11.79120238304945
In       21.49882760915906   10.60560886380081   10.53196217564551
P        21.02623815795606    8.17259109571264   10.44764964622196
In       20.19933022546051    6.85069499678936   18.39678855655957
In       21.74672605271834    9.08595815029864   16.12644949551145
P        21.20848233378490    6.70604021518582   16.15462899495211
