166
 energy: -12.142322795299 gnorm: 0.000117776549 xtb: 6.4.1 (afa7bdf)
In       12.58323374976523   10.68994021712016    1.85493648559253
P        14.14391760962114   11.86284350025834    3.39444187130473
P        13.66610945759318    8.57295281990038    1.28248156165862
In       11.80848661256520   10.44271076185448    7.43274361717537
P        13.58586825769724   11.53450621991186    8.74083663081023
P        13.81790664950957   10.08508634715572    6.06770169465550
In       12.13469002954770   10.74863769915321   12.16113460753888
P        13.85684924008898   11.93075252199386   13.44649085977703
P        13.21675751899112    9.06447496846548   10.76513382519468
In       16.46723642351111   16.54270307761528   -0.14669110863552
In       14.45591202091681   13.57579943195538    1.60540009441747
P        16.76832909794550   17.09435299875707    2.19938742776054
P        16.36946313072937   14.10749730241761    0.14807161611166
In       15.50890924955512   15.40959638958116    4.94291308035299
In       13.97341747079940   13.25377457999886    6.97007741196113
P        12.17915593771719   13.39864565408286    5.31637572814280
P        17.27070929424271   16.91797958988689    5.71990386389281
P        15.86561103903334   12.96190494910361    5.32649955015337
In       15.58810689547281   16.17665586419692    9.52212279337672
In       14.34232532207723   13.62382892547338   11.73595674723786
P        17.13137872687654   17.42691492005586   10.90322135783057
P        16.39115711921301   14.01263250255358   10.40462238500846
In       16.01831062529926    5.86561617752691    2.10757303546282
P        15.34079029234472    6.07560607827584    4.48522532084576
P        18.27832440036507    6.89944748930881    2.05519485576851
P        14.69279684696942    4.09947078711393    1.03310018056381
In       15.57239471020953    4.83018332210824    8.04418416732142
In       12.01185671700540    6.23309670946017    8.26111078004056
P        14.26833780331831    6.68579013228441    9.11496639784465
P        17.83633591699576    5.29856481231479    8.97265823841169
P        16.30181462277816    3.74955321577744    5.92602961170052
In       15.74351151899577    3.84735375011929   12.28237423596748
P        13.67675540428598    4.97116331635356   11.60109754676725
P        17.60134675303192    4.96487055888295   13.45751057311225
P        16.90838555942027    2.79396264102007   10.39001388822477
In       14.33065390046688    8.15338427366267    3.60479235251872
In       19.59740765434278   10.91327170092600    1.76706996658209
In       18.56266323331929    8.67008412654369    3.78500459993657
In       16.07372824313009   10.63381888710154    2.35661839577143
P        16.29484548828098    9.40949305091515    4.55639436066844
P        17.96995018679423   11.89759281060423    3.38865005437907
P        21.22290620584976   12.46456006129374    0.69859252720855
P        20.86165110261979    9.75979166646537    3.61068285512498
In       14.97047902034717    8.24589637364391    7.28923393860432
In       19.06329647280304   10.49180911529276    6.88161783284802
In       18.63553800888921    7.38536949531071    7.81821515056589
In       15.87061074295223   10.75302215173391    9.29252016949887
P        16.73318529398210    8.43319017994778    9.03801388066909
P        17.91829460667054   11.92312295720912    8.55005636475795
P        20.66766508569508   11.97672056973154    5.66624198898158
P        20.44778476767953    9.07174025402003    8.40346483485199
In       13.36505608398532    7.25839771880975   12.43034914369741
In       19.25743672062995   10.65102974096410   11.49680335787238
In       17.48980007589002    7.32684608581204   12.72548849261081
In       15.79227142305682   10.45358625143576   12.99873474960807
P        15.33160541004829    8.11252915598727   13.65076658704041
P        18.02881380487223   11.38711714847433   13.50761299411739
P        20.96757123268186   12.29148524920484   10.69500210698646
P        18.93817678599216    8.22518603861176   10.89514276491144
In       17.91314199413717   14.02061181910514    2.08815341581294
In       22.72040550742987   16.50007716118138    2.45983193877768
In       21.15428728515985   13.62046062715666    2.88026565884670
In       19.19147996664512   17.13306345826743    2.61255017006056
P        19.34243906775019   15.00854666124977    3.89169637460695
P        20.79397002162785   16.33187856212425    0.93834073396475
P        24.20393552175646   18.36848380643152    3.04488415594355
P        22.93631328678326   14.74032722105063    4.23197410945879
In       17.49330443159375   13.82656793083709    7.01747057548248
In       22.88668576186348   16.55803968799320    7.52817487434637
In       20.68830898759193   13.51400162587172    7.62505283093716
In       19.19065023871193   16.91287847383307    7.26285546202577
P        18.94423396151669   14.92402891958233    8.74747834095426
P        21.06887777888875   16.04509511993065    5.89543196304458
P        24.76804277172909   15.98246674586547    5.98494489854846
P        22.48888531298755   14.57336346493401    9.00655802705582
In       17.66515579781476   13.62989542695144   12.50853061495053
In       22.65633336241380   16.54803434564588   12.18760741366852
In       21.11971233238494   13.56475424949836   12.84497113091606
In       19.12222546738864   16.99993006595448   12.25718807847758
P        19.30651328540290   15.02648061307882   13.72403504231611
P        20.74232441287118   15.94511451558933   10.71392422086919
P        24.45171256342105   15.62008158518725   10.72972346433068
P        22.72909057462189   14.98902956691088   14.09478293255891
In       15.25548004018381    2.45802142385927    2.73022809254840
In       21.98084607636713    4.56075012354064    3.40670999815633
In       18.67406152142229    3.12384521064323    1.11131212403913
In       18.73846510265655    5.31180819396972    3.91538699292624
P        17.54042769943682    3.21049155212288    3.29698695116332
P        20.84428188428321    6.54253340016855    4.45104939311315
P        24.03237043613637    5.99527974300563    3.45223893502720
P        20.77020682141287    4.41151056611554    1.24155738767526
In       16.90971660821717    1.57217890272690    6.88933293071733
In       22.66418556905072    4.16828215805758    6.99334511045684
In       20.81170666501691    0.87957583049136    6.38024889296861
In       19.37666499517722    4.14908110605453    7.38318902509787
P        19.12142039591922    1.72945174228148    7.95086839943463
P        21.17074447504703    5.38921937055182    8.63462237895138
P        24.53013305651138    5.36231092969519    8.14365496937304
P        22.73427052340824    1.76395213851522    7.64207559166103
In       18.60191644124666    1.57049247851824   11.67724480777085
In       23.48371780959188    5.23917424667325   11.93110895959166
In       21.91499465159195    2.04694081474240   11.45424488407153
In       19.88140093388755    4.66085674077251   12.53693029496098
P        19.96927202297725    3.28417250170612   10.45808401217383
P        21.74716475401318    5.91955304506807   13.56214645404532
P        25.49483270873463    6.11338747364128   13.08197342913421
P        23.34712424283037    3.56375136828215   10.07630263356985
In       21.33911931272928    7.70067929693983    2.26928143650964
In       26.32473855611870   10.58936688561305    2.87722205235707
In       24.82018037113036    7.65108334692767    1.75458585096703
In       23.05880090345942   10.89464905575989    1.29666845930790
P        22.87085692293773    8.54919890388594    0.50948195360196
P        24.01496387354468   11.23712678601639    3.56412834132514
P        27.95716870649512   12.11254755303954    3.96870313390361
P        26.42605145050284    8.20550054123064    3.58381290706791
In       22.04019725127018    7.41612618061453    7.43510580257550
In       25.71280836818060   10.46922821305836    7.21286795655438
In       25.05816303814377    7.04982219919586    6.38365104746157
In       22.48631652652585   10.44616872791096    6.44495979704984
P        23.12345752772562    8.28384408340449    5.32032289488251
P        23.66656404300270   11.12582665510044    8.52117737147080
P        27.37755080221992   11.70675476857514    8.61269498457235
P        25.51434808243388    8.32807132505692    8.46159000095607
In       21.04603708968028    7.89130435798032   12.22965756359627
In       25.68527729037593   12.25727957255508   11.63876220420310
In       24.85745786428516    8.33861837481513   12.18327342524076
In       22.69728683206157   10.70211902619593   11.55452130164691
P        22.89756209173087    8.37302546261780   10.61686837728449
P        24.19082774853675   11.38809435608279   13.41820750000859
P        28.10265411150441   12.79495854382261   11.46490176123198
P        26.13589502936073    9.96266948413164   10.75964835246915
In       24.71617470929142   13.55841151392064    2.94004503898946
In       28.20154051933371   13.92812668894127    2.30860527341184
In       26.36883040648757   17.28094803150299    3.15031949247802
P        26.58843600210690   14.93850607687414    3.88849791147671
In       24.28799336381141   13.40337478019070    7.71335847124758
In       27.86837429789036   13.58474815656687    7.04349099364205
In       26.45020887680145   16.84890159279286    7.57340546364609
P        26.26499726012926   14.62804665350765    8.65686841723903
P        29.93496516530100   14.13448269172944    5.89002753116104
In       24.54476132139486   13.45196622001676   14.73046739594022
In       28.51603404306805   13.30405414232876   13.82725614810078
In       26.26742906162300   16.23779533170162   12.25098990783365
P        26.56528729926033   14.74216240567274   14.15951214946259
In       22.45860353487235    2.75841257182718    0.51920499535076
In       25.31543263409287    4.30957307178001    2.12397492114216
P        24.11085448713705    2.16508460101442    2.20733989392461
P        27.13348555439202    5.03882191785574    3.64515320643646
In       24.63814659107704    0.99073187423249    6.29848605538272
In       30.18308821109680    5.20233035764403    6.05320899479575
In       26.41186840287033    3.93764375978775    7.33818479493712
P        25.67954574178776    2.91642587221501    5.22037950564111
P        28.53200099558486    5.11184780503883    7.81626922344563
In       25.38879682605052    2.33528197688032   10.81095265745449
In       27.48816166786215    6.05192390243758   11.61729150473483
P        27.40170996221876    3.64841252671154   11.14250923164079
P        28.43015611002453    7.46018809887445   13.39201282040803
In       28.20637013845016    6.90144290948519    2.44503455631706
In       30.02211974077037   10.80923654157316    3.66493183320412
P        29.85993486476441    8.70122948327873    2.49856299731766
In       27.83290276213119    7.44168280339539    8.28789611369370
In       29.13380038761166   10.40583338604943    7.40796252398539
P        28.36636945030197    8.46649313568918    6.11456137189748
In       28.05406916885638    9.64072627126249   12.32824331338879
In       30.33909523054701   12.13609801897812   10.67416249489023
P        30.08954870676097    9.73935361311072   10.95481883944650
