182
 energy: -13.697204957754 gnorm: 0.000207403794 xtb: 6.4.1 (afa7bdf)
In        5.63338145283241   10.80611707163804    4.87781002290736
In        5.52620884861420   15.28500462034056    4.18747697591356
In        3.59363600515547   12.90741683766760    1.83372551051969
P         4.37075102429682   10.81097836269258    2.77761583682054
P         4.56176518823806   15.16388539494137    1.91037081912583
P         6.58766109423180   13.12171944318725    4.89557735859563
P         6.68443766477521    8.62382876032766    5.42103690434358
In        7.18202862324581    9.17881893652390   10.82797858481422
In        6.68126012014869   13.66865161133286   10.27382056634090
In        5.63985595625298   11.09410131946174    8.34138704910277
P         6.78891664335091    8.91822499640444    8.41132406000242
P         6.44501289288912   13.39176590519098    7.80557303019406
P         7.91680946573026   11.55286033944484   10.74408622152190
P         8.56654809594038    7.32359726374118   11.65635450355604
In        3.64586268570899   17.37730269046404    1.34590427629504
In        5.54558584251900   19.82987393648934    3.57205285612060
In        5.71387821059211   24.36509949441424    3.02460367413500
In        3.88545752659570   21.88809208145933    0.67987266176105
P         4.64703633788398   19.62463069630792    1.27570963757966
P         4.93133459725939   24.11451730829488    0.69066751125220
P         6.56325761753277   22.11724527801832    3.74446975472257
P         6.47431730685749   17.60463216262034    4.28120800765429
In        5.28377527213703   15.59133909441396    7.66854127708380
In        6.27643909789658   18.16699216589602    9.65910846174427
In        6.04162989802239   22.63990892729090    9.10376961496424
In        5.08182814826853   20.12351998752832    7.02138401357288
P         6.15580689960732   17.87953845925399    7.18355859856615
P         6.07090415505684   22.37874899080263    6.62246857555132
P         7.18186559554363   20.48961177510048    9.64001517169608
P         7.46380074468547   16.03609818836105   10.18138076094620
In        4.38959549806429   26.44169135041606    0.11341382123000
In        6.03537059625349   28.92753602964770    2.97469403619855
P         5.25708488213590   28.64112170389623    0.66804871202344
P         7.12255110203273   31.05948319374471    3.55193364109679
P         6.80136892244093   26.59155029819834    3.40617936870335
In        5.03048297046595   24.63311504081377    6.44829126584277
In        5.85655271820605   27.11047488559635    8.66998686699446
P         6.05584741433890   26.86745551169508    6.22223895342391
P         6.73186654895295   29.34152465967554    9.21033093896223
P         6.96879306535593   24.94916056978606    9.19328972896429
In       10.01547321513142    6.24459425292626    5.86077341193499
In        6.96312274938471    8.34539370015373    3.00437550505430
In        9.08825955663240   10.81259885334314    4.93632978302487
In        8.92511713809404   15.30965788845178    4.35445586856723
In        7.05262182270583   12.82642551641196    2.46348923990935
P         8.04066424137285   10.54791653938330    2.70233233647648
P         8.09474587784317   15.05122661613950    2.03685419703465
P         9.97814607208247   13.15300984072823    5.05907533372528
P        10.23869738639371    8.66815959636704    5.52546443775945
In        9.63056434459497    6.98519518866672    9.48740352752347
In       10.82980969084823    9.63419248266433   10.95951562713140
In       10.06234255820246   13.97426406621312   10.41745347874661
In        9.06250945555975   11.30070096562599    8.56522570487675
P        10.37085959640577    9.16475451556478    8.54699678486775
P         9.79835124651619   13.61682291080090    7.95949791957044
P        11.49986053437174   12.02949755142560   10.98236232777855
P        12.14926863366583    7.63437801269071   11.55278859064011
In        7.08844872493273   17.32826979820584    1.87952816507825
In        8.84555785791209   19.75562416546713    3.83769810593183
In        9.07267426469938   24.27094640134898    3.45526000739590
In        7.30137489807643   21.90089737249244    1.37183472293489
P         8.14117589076919   19.55312009640598    1.47413944024363
P         8.44542770920869   24.09846939839953    1.07086607858030
P         9.86200660920353   22.01227321261741    4.13348238089583
P         9.88788172544369   17.60847886264807    4.55486691458858
In        8.61534738701125   15.82772301310321    7.99995213221446
In        9.73357473964320   18.40270308069033    9.91805215674123
In        9.49437834697309   22.82670641240026    9.52057133651342
In        8.41130685088627   20.32237231762149    7.49831712048247
P         9.54523946930102   18.08629231362198    7.44654388656522
P         9.38301680030770   22.58445137822664    7.03906241793396
P        10.66717472179240   20.70242647682225   10.06675315336662
P        10.95413255902928   16.29136148701121   10.41576231938800
In        7.75914366550659   26.49722734285912    1.11020665170131
In        9.31127206317206   28.59907008384569    3.57087274081939
In       10.57970962806400   31.71199788080036    4.48890838018212
In        8.38883182979805   31.10611554414073    1.45053774495611
P         8.91493690415355   28.70231207889197    1.13597994134454
P        10.47842904150334   32.22653663003902    2.09923736405346
P        11.37992571285317   29.36503560693274    4.73964736731948
P        10.30078704742076   26.36382429140507    3.97787156220700
In        8.37165086208771   24.88478021521505    7.15399122236285
In        9.30352813074631   27.26993737599134    9.53282339005736
In        9.27610854912658   31.77576590659451   10.13741284705565
In        8.24668013453583   29.51180339963699    7.28842597673074
P         9.25144596170985   27.22719635031127    7.04934678401374
P         8.88819944059903   31.86086707351645    7.71469004523608
P        10.14059156910153   29.46041363180173   10.35335405367416
P        10.46048256206440   25.09004611170397    9.85111838803990
P        11.37572399959003   33.50218582351282    5.96387524623895
P        10.23992225899801   33.68195106762157   11.35496093847709
P        14.25099284531685    6.06894824145163    7.53521469223007
In       10.49511176821665    8.42020282687592    3.05641164663042
In       12.55294037306212   11.06816027121890    5.05644647260736
In       12.32563936284005   15.41352462182772    4.56581713603308
In       10.49912060334813   12.83749396767044    2.63769388335401
P        11.61963455310039   10.61158468634644    2.79359565547181
P        11.52757056618898   15.07244901501862    2.24595563012828
P        13.60451479440188   13.34041141623025    5.04936157217098
P        13.57914094269023    8.99394042146682    5.94568794982674
In       13.16824102376511    7.29884096170919    9.34490411992248
In       14.21918807194253   10.22585819178629   11.16452259517447
In       13.87649858440995   14.48638053384164   10.34566716572830
In       12.42975934784936   11.84051371723799    8.69974391355064
P        13.64981196910407    9.67648305073792    8.80325509469299
P        13.34808762865936   14.03821189633127    7.94340172474068
P        15.23728919100761   12.43329030534779   10.65610291206029
P        15.97020159694041    8.50526967118821   10.99382093989643
In       10.53479356454653   17.35073105948982    2.15439253270520
In       12.26034992380070   19.71458889229202    4.17310686137241
In       12.37704316708079   23.76584186544162    3.91711894331460
In       10.65551129635055   21.74191299218543    1.77326231340594
P        11.72396806041731   19.49910652205406    1.77449179007239
P        11.89417476063052   23.87959665455928    1.50231542578496
P        13.64906177088243   21.73010649591838    4.58980622977959
P        13.45496133356448   17.63038668625992    4.77109559631839
In       11.93861666218110   16.09131792153858    8.15412129254358
In       13.20767075418751   18.56442885915775   10.11685504372588
In       13.13131270801092   23.05755057210981    9.89427411280461
In       11.73399498658662   20.61258432415579    7.83743075110500
P        12.82591904478570   18.36607018940808    7.65396094724008
P        12.59852073570407   22.92723045223702    7.47272102092659
P        14.19148285679086   20.84121558235238   10.23985228151663
P        14.89493790748985   16.75309782403886   10.35510514677101
In       11.34844899247565   26.28905403418082    1.72792231158326
In       13.61499884582136   26.85380560384382    4.35581406431672
In       13.88218893348891   31.19872905266568    5.89829403258887
In       12.82039269556487   29.93728742207235    2.80534524035399
P        13.43139888399184   27.64918467726049    2.00986772945404
P        13.70795020582923   32.11569160079816    3.61357646648607
P        14.41816375638050   28.78227651161911    5.68961877942581
P        14.65269264650947   24.56742419750313    4.56002437807668
In       11.66562507414925   25.24244425666867    7.69163416830815
In       12.79102373253945   27.31444882806857   10.24677567480416
In       12.75410806469467   31.38885862193548   11.03085240601266
In       11.46281281833109   29.89290349016873    8.31117787459294
P        12.38763721150001   27.63221573580894    7.81947692252728
P        12.18490700703897   32.24063589649126    8.78050498657357
P        14.11336368888785   29.37352274384782   10.63046603799407
P        14.17942546937713   25.26212346240105   10.31174122742207
In       13.06039385798826   34.35558619292276    4.42493967057076
In       11.59421584859064   34.51579192758864    9.52083638786292
In       13.93029604424512    8.33475424637297    3.61570595908979
In       17.02295042976625   10.65339048049390    2.80340175496586
In       16.50532032192897   14.61307895805030    3.86726846085399
In       13.93279559996172   12.89479104302236    2.62509152091348
P        14.57864454440304   10.49507768654407    2.61157773311685
P        15.08199232967520   14.96308329224864    1.88271584574105
P        16.80922482834109   12.28649746786694    4.59182145180016
In       16.93336353814410    8.55715288835528    8.77078365579850
In       19.06443948242682   11.31749823584646    7.42088501791220
In       17.73680268441212   14.74119145900655    9.45555280622288
In       15.77612291270914   12.12470766461804    8.26436812595907
P        16.86906401852879   10.26715555279302    7.00255696009493
P        16.32064426825068   14.40987272559814    7.44497600210482
P        18.82897756374469   12.53873769369445    9.50712738804718
In       14.10668452230538   17.17969768804045    2.41872345501177
In       16.95645784050052   18.98526926427366    3.43297772521334
In       17.70834166390284   23.15596496508012    3.96360396810683
In       14.60671814327930   21.43508246713847    2.31707912094022
P        15.31774374501884   19.17524442339488    1.59499390458933
P        16.56268913638740   22.87669339441046    1.79006009174156
P        16.74060944949678   21.04469135628773    4.78865311153708
P        16.96558166484950   16.87022205845212    4.71033415336474
In       15.43201295811980   16.68855086404047    7.95249661817596
In       17.92835796214399   19.19878435134654    8.06757236735139
In       16.70187380573467   22.87089728106393    9.85033099742495
In       14.98991380285535   20.81493216863995    7.89649799430864
P        15.88951017705969   18.80709799054675    6.67225372746381
P        15.80137208753253   23.15968926302216    7.55719702793249
P        17.42927203283382   20.52440836706162   10.07104192603207
P        18.58447089328448   16.97456856274787    8.88040644925361
In       15.36824273545382   25.00256311134125    2.22014721329650
In       18.49764740694616   26.65714968126776    3.83413114884007
In       15.98116343738930   29.40932239080433    3.87330444116996
P        16.34205358805771   27.21768515604433    2.77609195882571
P        17.36451133643209   25.14327082098423    5.41177105209518
In       14.99091635442996   25.46469608658990    7.99362318679783
In       18.40626754424558   26.27045248816878    8.66038412952406
In       15.85292886651380   29.08917995476159    8.93343999381668
P        16.57045450628699   27.31152459496226    7.37440050328253
P        17.44479901741865   25.10689086737149   10.55630460981410
