130
 energy: -9.186517093582 gnorm: 0.000135556277 xtb: 6.4.1 (afa7bdf)
In        8.01560735154072    5.04381528177554    7.10806450326253
P         8.51545958402975    6.74275932918198    5.38357988238135
P         9.43160771957482    5.96780246179483    8.95533303566648
In        7.68152644826443    5.78357279081729   12.52951685336151
P         7.38650133703869    7.27750449968681   10.53653209842401
P         9.61812510913828    6.28692416685434   14.09633055350701
P         7.67311932285613    3.39936860894989   13.20238508007773
In        8.31138898018301    4.33491455574827   18.89127883155178
P         7.19723878535808    4.41179267289119   16.73444445201910
P        10.24807780428163    5.79997599594564   19.23845194992305
In        9.99027019790423   10.85493945265407    2.04650891453652
P         7.95511256408123   12.16526400216095    2.38173818904070
P        11.89578635778268   11.98849406705319    3.12503651754850
P         9.52804244676183    8.92923658410945    3.53217515500195
In        6.51787831926596    7.92948302257133    6.24511092100126
In       11.17641292768593   11.02972521508535    6.95087250269237
In        9.45287504516495    8.20192304459848    7.85152153740513
In        7.56463567625700   11.16734298456364    6.55291770944266
P         7.27590919642072    9.31529851161168    8.17168780114560
P         9.54952368448446   11.64475919397267    5.13129095141806
P        13.35664151515711   11.69983321978530    5.91037965411761
P        11.31622913857224    8.61359220245248    6.24358580076343
In        5.57264915021525    8.59951483253900   11.54173628511457
In       11.04986191824419    9.89375422979206   10.54807539894490
In        9.43383249814609    8.43222772835724   12.83432058274587
In        7.56359461165770   11.17472333822923   12.73098576235522
P         7.04553162531876    8.85329742027801   13.50439648396196
P         8.67211580404127   10.68713942142887   10.57159161951424
P        13.25454935203792   10.99422766773610   10.98700318594493
P        11.00528169345859    7.42846979804305   11.13256922878361
In        6.74607289900628    6.76891913368599   16.36841703084492
In       12.10999553327403   10.29918386038399   16.09066843946790
In       10.30537520382653    7.76403631651314   17.72666115393891
In        7.91211678709372   10.11389321247254   17.58884286599384
P         8.62084391769158    8.34891511812407   15.97534317086694
P        10.21971242318405   11.02449039532101   17.55104842761733
P        14.10022571573625   11.85812505553814   16.16455752741881
P        12.36470028524158    7.82683898067802   16.30952291867213
In       10.68459372034402   11.34178350419864   21.68139482784152
In        8.41883954604909    8.26309329149534   21.46531795775022
P        12.07161901110070   13.04737213471366   20.53774611532337
P        10.62417395444091    9.04147852555716   20.79975528006144
In        9.58223080544627   14.03197086584290    5.80177044544577
In       15.09102930629548   16.83611552250974    8.11311338825023
In       13.12764440114785   14.01770606687411    6.84641384125554
In       11.22973844891737   17.10817227183180    7.14265688115284
P        10.91600674728254   14.73130701625832    7.75143551124179
P        13.50995981758472   17.35746007890701    6.34478142067260
P        14.79735590430525   14.43083548637494    8.67505687233010
In        9.17742569146924   13.08743284226576   10.27232418996567
In       13.77792243826555   15.56471088343484   12.21933995763296
In       12.05051733006133   12.70765929699285   12.34626485803799
In       10.48391205682396   16.32334170386329   11.29572841242857
P        10.01681092604390   14.14708949542993   12.33179667216924
P        12.43161975677459   15.32106117440817   10.15762612524437
P        15.47225149311892   16.82149674731430   13.49038086767352
P        13.83890175378116   13.63920245915472   13.83368285344368
In        9.46829953475307   12.41489073348593   15.64367865998474
In       14.38567940645594   16.96354563258468   17.50984324802438
In       12.55624919273491   13.46860923027794   17.29458811847979
In       10.81664190719661   16.33345091312652   16.19946908173957
P        11.25589609647923   14.07737417243024   15.25853567296001
P        13.09088138728247   16.79013449360426   15.44325576353370
P        13.60231239825558   15.07019015521105   18.88588271750808
In       10.40128129158073   14.83583077106320   20.50461623065268
P        11.53061793451515    5.83058729087342    4.12645998659559
In       14.47257262178291    4.53967578101392    7.66117620772985
In       11.41839018423146    1.36358359730772    7.01396280719090
In       11.25501760030243    4.90005891838995    7.60290917642846
P        11.34889108349200    3.38683732269939    5.65409100449629
P        12.94432023443641    5.74669808265274    9.23132911554831
P        14.22016317483603    6.43577218576348    6.07551906343619
P        13.51281415020965    2.28206509168476    7.84495417132944
In        7.97532719008516    2.56556107418736   10.93225664685113
In       14.71528592952348    4.73218593762719   12.42108789593747
In       11.47113886004058    1.55266049161550   11.31505472356922
In       10.73276957052260    4.57639035131054   12.60772965462840
P        10.20806768451887    3.50267866210797   10.41766858723854
P        12.78679822739672    4.86113734469843   14.00431120382034
P        14.88789619893631    6.74645385217048   10.98073103716345
P        13.47976964777578    2.93391752804293   11.27873340552921
In       14.86090759649958    3.51012068992848   16.94207728757747
In       10.80755147424960    1.59195822172958   16.37312447558628
In       11.61938869717500    4.62299892252441   17.53027007968225
P        10.14257081978222    3.86111685179100   15.67651386030892
P        13.75690941927060    4.70082640290124   18.80108746397353
P        14.94334868808756    5.68783144221410   15.76462094391586
P        13.13082054990448    2.13890909561994   15.84834687728916
In       11.79286579960740    8.02015103746356    3.05632158147531
In       14.05438519904971   10.83867993208569    2.87687330396940
P        13.82756180142719    8.80063338608170    4.27605905792985
P        15.91522362208788   12.10448679372652    3.83646085463358
In       12.71279315355958    8.01305484628732    8.21216692789368
In       17.96785722726765   10.40019318801878    7.33042103244044
In       15.90232003571947    7.66072874094030    7.45080665369064
In       14.64454190849152   11.27394235429401    8.01086271078233
P        14.74681986028304    9.07132932850976    9.18477960800625
P        16.86928546027670   11.82533543482270    9.06330738302137
P        19.54838056239265   11.97286089844857    6.30112569873765
P        16.13492232367999    9.57639017687519    5.87414456893521
In       12.57310774879913    7.17781329552967   13.05350937150684
In       18.40810078758253   10.66000607245077   12.74602805185600
In       16.50220361748235    7.80683800937983   12.55919362144980
In       14.38593794939634   10.27248764728993   13.08534167293594
P        14.62692342384448    8.03137534442769   14.21049837771796
P        16.43358686237529   11.25245458617821   14.17002349204813
P        19.63333536738324   11.90337495218973   11.01182768419690
P        16.80609553271114    9.78015595190301   11.07356741506065
In       13.53385717314092    7.14238651159102   18.40115548733345
In       18.14870835737273   10.35524428554120   17.48988977735548
In       16.61886698851688    6.89848375208843   17.17217973071390
In       14.79873513328789   10.51444453600219   18.16178282938191
P        15.65325462750764    8.30455850308303   18.98018586383468
P        16.79426567051049   11.68874405622419   19.07826258080839
P        19.02225682457376   12.07714730012656   15.96666611247702
P        16.67163876588628    9.07769161915240   15.96563196677831
In       12.62249470152083    8.37084418008870   22.07121768779261
In       16.52679423556663    9.18511754719857   22.45826322776216
In       14.07494188812986   12.25329270620569   21.74437696788308
P        14.45745947601313    9.84804598851812   21.34787396112799
In       16.83586318449975   13.70446187134771    7.39381604284730
In       20.35273974123835   13.88876632572217    7.55055401705097
P        18.51185236970892   15.37771652309727    8.11163830088348
In       16.00061511562594   13.19522554783084   12.63588496418132
In       19.22557321052662   14.10126661921748   11.98062323475471
In       17.13379746879843   16.67419341537876   11.71851376970408
P        17.08510567504683   14.39168867555368   10.71558426756615
In       15.76662220016581   13.86954166016318   18.48620998222100
In       18.53279562917244   14.44597223776968   16.13379973966827
P        16.10829035242612   14.24269833859510   16.08611579699588
