56
 energy: -3.682544369858 gnorm: 0.000741174801 xtb: 6.4.1 (afa7bdf)
P         2.99329069901397    5.26210836772509    3.82988889236855
P         4.30476723703245    4.95581971320412    7.40705582066976
In        2.09304088535532    3.34614159081695   10.79157627374300
P         1.14844096825565    5.43475196900031   11.65762793466692
P         4.50561477445838    4.08673209624923   13.33336593627368
P         4.28838453792456    2.94436897667674    9.82672696161922
In        3.57466062512207    8.64485067907036    2.95560268333587
In        4.27221893915145    6.52473799984707    5.48280209350724
In        0.66849363554384    8.22840206422985    5.87498468097382
P         2.89800334017412    8.07982018802944    6.81509506562920
P         1.34836532882789    9.26570955018949    3.76701399325828
P         3.98877320840085   10.97861520041613    6.42898503283710
P         5.71828635602544    8.02776734784550    4.04534484936799
In        0.63979732512352    6.93671746890326    9.83354941095988
In        3.54159014923930    9.61310034583205    9.93503749839498
In        3.30572410222466    6.14330938064783   12.69079484729208
In        1.88253397943239    9.46125469872673   13.52582314779271
P         3.31624791486629    7.78825783549717   14.54948207407107
P         2.03310940192194   10.82211551973253   11.47506654036208
P         5.18624583373855   10.76399271013526   13.49984463292803
P         4.30581595756308    7.41344281294071   10.77423173942151
In        2.17765747593752   11.37075211309841    4.81201408605485
P         0.32084047870247   12.29192296779160    6.11135243403857
P         3.70180939714284   12.73245246137695    3.38555033673346
In       -0.01499470303568   11.20150854085432   10.20408872111880
In        2.90603211710267   13.70788746714769    8.88134016865303
In        3.90409609979562   12.32693326816269   12.13470185787328
P         4.87994602536468   12.70656088367511    9.88666984320622
In        5.70736543040278    3.23493621651818    6.36707719443684
P         7.05734578464085    2.41496560544140    8.21800132543562
P         6.76015751160179    4.69226538851666    4.66566604921536
P         9.27878115031454    5.01356823500684    7.39459635056628
In        9.96875949234634    3.21802334449863   10.75679287854369
In        5.80969320663456    2.76706436290635   11.75062414785492
P         7.80305919661600    4.20371504048429   11.30100334628148
In        6.77019027581726    6.21525188193418    2.73848183599381
In        8.94023047267137    9.46051599528298    3.42106596639535
In        7.36767453039355    6.27409326515783    6.50768267349642
In        6.03088021803099    9.73833527938616    5.83979563147218
P         6.21570893652570    8.11835036079652    7.70495161643218
P         7.28345777310591   11.12715326682244    4.16014942197606
P         9.47248719340596   10.51407210366531    7.30029781752580
P         8.77944347090486    7.73953770207213    5.11328415958639
In        6.18717347425698    5.84522455259208   10.40417419467318
In        9.29643390664088    7.67401240549145   10.07299024597147
In        8.39513854148210    5.56927314513653   13.29819102178194
In        5.71187614847367    8.58786604297823   12.48211592300022
P         6.34513706253838    6.72127031673265   13.96261539777494
P         7.73312573608953    9.26151537519185   11.13964191810261
P        10.20475022465287    6.64141510413682   12.06269817691344
In        5.63141927892610   11.60110667254280    2.39678189855428
In        8.31863112906207   12.27806592653304    6.10740025041638
In        4.82557304968424   14.07965167113134    5.09690790801152
P         6.27214024811797   13.36146620418080    6.90817915734946
In        6.84576804964273   11.24674868240760    9.97139946576056
In        8.97857641665213   10.00871163458918   13.12405646936483
