50
 energy: -3.142677244495 gnorm: 0.000614523879 xtb: 6.4.1 (afa7bdf)
In        3.67292405391426    3.48403073691921    4.65191953284973
In        4.41654456219013    7.44345259241354    3.99288221703411
P         5.23321815500665    5.16066442794179    3.93863499377509
In        3.59373951999376    2.87494537144545   11.07266217402879
In        2.36615272530603    6.28984493140466   10.62551359503933
In        1.13373247343639    3.70440232229701    7.81044599057291
P         2.43644051494831    2.07593418719919    9.05349508332301
P         1.26265029203634    6.05780699773586    8.43773877187267
P         4.57617022802574    5.15465094970703   10.77338022384340
P         5.42741973894246    1.37455070530051   11.77136894905472
In        4.19554589008096    6.04983174882091   16.22654000082056
P         4.30906598772091    5.75395870532297   13.80147271898151
In        3.86693860464276   11.30164700801768    3.50460632451379
P         4.45370859023300   13.61278906629476    3.75236937292464
P         5.33893997036543    9.65147605608139    4.57357648729519
In        1.58462685212773    7.76117251414837    6.71858502939724
In        2.35557563032828    9.98152507628076    9.52624489648612
In        3.29195630684367   13.47650330819447   10.84578373659819
In        1.38761350370260   12.23171657469878    6.68642946158801
P         2.41496735020679   10.05241660188250    7.04502736191150
P         4.31924247294964   11.34440851551159   10.22272848808001
P         3.93359770679016    8.15953288704184   10.12325731673636
In        3.59172031878883    8.07333604996536   13.47447480369741
P         3.26432732109081   10.45846510483134   13.35576157186451
P         5.58807486120596    8.03486698476656   16.26379791558687
In        8.63858396850786    6.06987384947554    4.63449829661270
P         7.66639193151484    7.17416432725580    2.70583683335408
In        5.38083754698798    0.17389044018274    9.65779861102073
In        7.80889780006247    2.77770366903492    8.43347491817224
In        7.67949695435727    6.42990105069108    9.32673738474188
In        4.62572787816233    4.68746155399888    8.33968038172104
P         5.38743852913131    2.32302126210296    8.45103286739461
P         6.35056161872130    6.12446989346063    7.26129753204667
P         7.57063211957302    4.20710640182105   10.40435544797272
In        7.49121442480517    4.16085242034135   14.20034855395834
P         5.54463551792190    2.78927137569703   14.54747736606419
P         7.36557026681602    6.10846371022896   12.71752202776844
In        7.26520866151479    9.54142765973428    3.04601889945011
In       10.12903520770354    9.47509336887025    5.60883418459986
P         8.41297231316527    7.89665258398870    6.25074158686648
In        5.05118643368936    8.15458345749585    7.92792396280395
In        7.45471560703171   10.39989492842552    9.54612061673931
In        4.98849754591498   11.93017958616227    7.91098390225579
P         6.50506628457254   10.06984407954188    7.27098952591329
P         5.98635713090959   14.12205590187042    7.58971042283264
P         7.13338420727683   12.50665226679836   10.75112840556950
P         7.31696692574928    8.31190679936977   10.89214716296452
In        7.06801493724460    7.98778675252933   14.32158942083491
In        6.75980867434448   11.75477948589057   14.83739356367581
P         7.01084138332443   10.13059375125987   13.06916110686326
