172
 energy: -12.208521615448 gnorm: 0.000489876082 xtb: 6.4.1 (afa7bdf)
In        3.77190028372354    9.44247950247606    3.66474302142017
P         3.26737236700986   11.82139587113219    3.82853194661658
P         4.83402345585668   11.23320729431207    7.29048166544239
P         4.82000563040876    7.73784190040297    5.07816953147053
In        3.04925015330970    9.29491509124285   10.07265652502693
P         1.64294382443115   11.30252860885806   10.05372359728595
P         4.61008963051567   11.47187607375244   12.73457337004565
P         5.41572005277411    9.06037595971847    9.36666474847798
In        4.25836117267804   14.90463232705842    2.20128233197970
In        4.25840184672482   13.07423151736861    5.72363646542732
In        0.95199374526498   13.61579288274602    5.38595811115817
P         2.43967633748048   13.71377526516942    7.32560526337772
P         2.48017465142424   14.86607148885722    3.90683291049144
P         5.11986317920285   16.01346864064914    7.60566358036981
P         5.75867294426389   14.29361749350791    4.06676039042058
In       -0.38823324716429   12.57150647565884    9.69374353628517
In        2.18485267214246   16.09064003377068    9.91751755903102
In        2.80878562818920   12.77427422085372   11.69410131082314
P         1.49981380148905   14.13372195092848   13.24195693124330
P         2.45123985327927   18.50182504213794    9.79519487502245
P         3.67140181529831   17.01635957798538   13.00638558706356
P         3.91139470525684   14.30597989695722   10.01510234655179
In        3.57552632362714   16.28334345221020    5.66998721371051
P         1.70690881735537   17.63301027917566    6.51270154833758
P         4.49296249742704   19.97041564992395    7.06684773200158
P         5.16766284065767   17.57484874450592    4.25914638342187
In        5.59195483056629   22.12891701285474    9.97649637874628
In        3.01385395212659   19.18914920218587   12.08468896974474
P         5.17645523713885   20.34984787944724   11.59218441219544
P         9.07550894763341    6.66942836849437    5.31697503902904
P        11.97494173373687    8.50916664534784    7.95161113988598
In        9.07423893386792    5.47796862192830    9.41933044454464
P         7.77400461585887    5.62461083556689   11.45425264529937
P        10.05554911105443    6.28075952214259   15.28683154774539
In        6.81284783122377    6.44318856439161    4.48331897323465
In        9.32367633653196    9.11824983433690    2.66192363173976
In       10.06993738281977    8.64570587419302    6.39001190649411
In        6.19908962306180    9.47761334516869    6.20970527120083
P         8.02772304420941    8.96023212563098    7.78769511459300
P         7.77871145209612   10.01496131174309    4.35648058787963
P        11.08346210591892   11.67240471695891    7.40431103320843
P        11.17256097707902    9.49708745756625    4.26700050697458
In        5.89055984314683    7.00497460001446   10.68920770483139
In        9.46743552678591    9.60851734054271   10.61420555700467
In        8.60237997539532    6.90966026578299   13.42117685911502
In        6.28942560010116   10.19109885000864   11.47078606018236
P         7.20085980005190    8.92743583424737   13.37865364082356
P         8.07277716497146   11.66568596540532   10.44953234297204
P         9.53811592363629   11.29238802446791   13.89529619996265
P        10.46661637336075    7.89746095809960   12.08104370060626
In        6.66671770967578   12.05283438228970    3.46303753301437
In        9.03816625048789   14.58241771366682    3.32592934426770
In        9.14247389421865   11.50274616775047    5.86705927284017
In        6.90648809695703   15.45862745012364    5.96272058398434
P         7.62421018069349   13.22053879666120    6.71895919541985
P         8.32189170378446   16.75106128574497    4.31182362591162
P        10.42802852102018   15.24097382936420    6.60676478368318
P        10.21744555813693   12.43637481957102    3.82025042769929
In        6.03496363373986   12.98416452730745    9.82337550280122
In        8.83487660601115   14.90488953443541    9.49209289371166
In        8.58027660092300   13.06563923916674   12.47248689461230
In        5.07784482352535   15.18896004489907   12.10267301534859
P         6.59589568659212   13.97961560351802   13.63594299504274
P         6.84951213997321   15.99315554281386   10.50040707729985
P         9.71742098879620   15.72055498743426   14.43367605119862
P        10.46199502300312   14.18132771979748   11.19771537009447
In        6.92225002694668   17.75717187273141    2.55169798342527
In        9.52458755789890   20.45653600229031    3.33369926370119
In        9.70534917296956   17.58288709473073    6.22171885912751
In        6.37231525364863   18.70276513386772    6.13766748348149
P         7.97938355226578   18.09597852251439    7.92640732350045
P         7.93409078540620   20.38350329239086    5.18652402490257
P        10.95000664665529   20.15991142215405    8.24038696448961
P        11.01454549536284   18.91535178545379    4.54310286151311
In        5.74123845628147   18.21690402261438   10.47369222905199
In        8.63688107007317   20.05621178403621   11.06169805529768
In        8.33571656859448   16.42371891215654   12.50318617893909
In        6.32975942845509   20.06797709799666   13.77564925154271
P         6.70348242583026   17.65727180067077   13.87758591446812
P         8.17313440348856   21.53738303884723   12.97720851034076
P         9.72364020211566   18.96083135297879   14.72353780337191
P         9.66670064407858   17.80814963413881   10.89271533363964
In        9.14861917442591   21.31030670757122    7.09980770560127
In        7.50367785520996   23.88175733726222   12.88567509829107
In        9.82859995635838   21.40236848972401   14.82916753833642
P        10.96720345970520   23.31832597818647   13.79946783461459
In       12.73764717258099    6.20600955242404    8.08926852412684
P        13.71926378477974    6.03157798616687    5.85735667033984
P        16.88965443532257    7.23823409560284    8.06819592702942
P        13.96905827016337    6.85554591942506   13.29590891004886
In       12.34252166145385    7.30027148280920    4.27713212019433
In       14.66674100341569    9.73732394020326    2.57025556242792
In       15.39109067826127    7.84683100620174    6.23299503717296
In       12.64438094384840   11.02872522185826    5.57947823151605
P        14.59139557490424   10.10918911371014    6.76379517288027
P        13.55729844194899   11.80590706521964    3.35531264583386
P        17.10811333925229   11.99734500261230    5.61013091422316
P        16.08969129284843    8.25634462103906    3.88258739603728
In       12.13862778000104    6.10614245288241   11.91763764317871
In       14.38959815590979    8.86701269839571   10.55327704012503
In       15.02670996100162    8.88045429626625   14.15467442482523
In       11.19983152132247    9.47219728550962   13.90558030250267
P        13.11559098241255    9.73279824265836   15.47103068178448
P        12.77244711834128    9.99410323892521   12.03406958382966
P        16.36351885703332   11.91773283821482   14.49704388453499
P        16.33307617007712    9.28856274400079   12.02314800027644
In       11.63826355172481   12.09745844191338    1.81692304450015
In       14.46065558757637   14.85352306226218    1.27270845930139
In       15.22754681739944   13.19897757869745    4.58467692378152
In       11.83852895711993   13.94610593188582    5.06744981650039
P        13.83159110732134   13.79422485773835    6.56201346542619
P        12.92045849049401   15.17790673239391    3.18228624662776
P        16.52018140619852   15.54936496495296    6.24157337689319
P        16.43031199467459   14.38697051623532    2.69466207122722
In       11.58768828365961   11.96232393608948   11.07117889524488
In       13.86676276805698   13.93306351628210    9.99220923740406
In       14.24024411866125   11.65596492228272   13.23872624577745
In       11.72912993110205   14.97028992906739   13.20396719309915
P        12.40409508463257   12.87859951545828   14.32031263073127
P        13.17755553370248   15.88591244089504   11.36238993569466
P        15.42927809495410   14.86052779356285   13.71806226291446
P        15.17196907869089   12.04626832561796   10.97098784589984
In       11.77695806765528   17.34258820124603    2.80990113593240
In       14.73543787071700   19.92905846436835    3.16756377066471
In       14.62423002394243   16.19772272933509    4.75771998057210
In       12.52631147918388   19.46212215513377    6.46601713289372
P        13.18415381764889   17.08630451849776    6.53710204639360
P        13.67983479786916   21.15854092890250    5.02037216119370
P        15.89875308110049   19.16920344863611    6.80653380722015
P        15.81841889879540   17.70242613427101    3.17945310678771
In       11.69111264801673   16.99023172742715    9.72952554100143
In       13.95031574152719   20.07826836234241   10.46296692480655
In       14.68089165619092   17.08829811268374   12.96317255225306
In       11.18668672278318   18.29606273415272   12.86112933650449
P        12.87914816551673   17.64598280022680   14.56807317747728
P        11.93601689665719   20.46719172718722   11.83063813235947
P        15.43474338803511   20.17727305996558   14.14220289691069
P        15.61750865093309   18.36414165079399   11.01717170206117
In       12.14136810317422   23.02749773406818    4.74787344896942
In       15.28093084351100   21.53986919761613    6.89057056542837
P        13.83243688515127   22.97806461109900    8.20114339083933
In       11.10467657413583   22.76499358238233   11.43540775495112
In       13.08325116620039   20.83399271745541   14.02137466620969
In       17.82400792575952    9.78708845028727    4.80713915473751
P        19.57205325742302    8.61797883727278    6.04687971491113
P        18.83724008955586   10.48838989904722    2.63825381546277
In       17.62640203209690    7.19711160913873   12.18516475005572
In       20.52256054760402   10.27266543465544    9.39589908531883
In       17.92137935982955   11.04834742813149   12.79048244132630
P        18.88107813005497   11.67856988758403   10.55910493177305
In       17.45078238843497   12.31487876441426    1.79275249875459
In       20.70971348702179   15.08115080271994    1.51213034678224
In       20.77318231673450   11.52502188447263    3.72465569296572
In       18.10726607560386   15.20937915918078    4.36387581131059
P        19.84387362759039   13.50326384309121    4.76299606994327
P        19.42514439851894   16.69744199631884    2.82957124421670
P        22.16528784954918   15.60101535723941    5.97061706629809
In       16.79204533128523   11.18493490109300    9.31433621943107
In       18.80548292292884   13.77910848988908    8.15801922396071
In       20.34361700052503   13.60843102561438   11.18273709068684
In       16.72843737568097   13.82517353639095   11.89770306574592
P        18.88615493081755   14.16483720104568   13.08413787314929
P        16.97919494945421   14.70350322268120    9.57194498126738
P        20.99221184070218   14.48342719345095    8.98152951924467
In       17.54228969262162   17.48093203044235    1.42428338767055
In       20.81199495947637   17.26538418195760    4.82932235251979
In       17.39752102700573   18.39939248628295    5.01431198238349
P        19.08576461661353   17.47746842757580    6.56133837116067
In       15.48658494687664   16.66535023652861    9.22407148551457
In       18.52546562570647   16.40414465578210   10.59046145778271
In       17.20376060930730   19.37930879344632   12.65130328295042
P        18.06838339786704   17.09303807172802   12.90073859189974
