6
 energy: -0.348590054432 gnorm: 0.000041682437 xtb: 6.4.1 (afa7bdf)
In        6.20045153931677    3.57970456791497    2.42952514470267
In        4.21221572156259    0.13554187408007    2.43477639430915
In        2.22317675786356    3.58018074037351    2.43628734383691
P         2.02808809361987    1.17103867529573    2.42212910978819
P         4.21193202863844    4.95391823927900    2.42734081188740
P         6.39650222019874    1.17062342475440    2.42928119547572
