18
 energy: -1.054884130787 gnorm: 0.000344900305 xtb: 6.4.1 (afa7bdf)
In        4.23939376296670    2.63365988867536    4.38486005754553
In        3.83679851923646    6.25961923490451    3.86458679206296
In        0.67296635182601    3.98585968632567    2.73644475286376
P         2.02164490038852    5.92951645345334    2.22308415086845
P         3.03443152510050    4.47855562014779    5.37828198556053
In        3.21109150583402    6.23188750420181    8.42359960222642
In        0.10478382267608    4.72652339672931    7.56234770023121
P         1.40467101139224    2.71062103145769    7.78059404858276
P         1.51396303594016    6.53562116112547    6.62057451755012
P         2.02334224338162    6.33731264223782   10.52358746141793
In        0.70848106425959    7.94102892207521    2.68533051195765
In        2.44744358346200   10.54373664881687    4.73562835606108
P         0.25658512897730   10.01637450293825    3.84967584417472
P         3.53915873231356    8.40151052608923    5.02030145403724
In        0.29635231711422    8.41486718339837    7.65290888895763
In        4.05739692665861    9.59873914937605    9.10376848245499
P         1.64466263196647    9.74601239763124    9.15606121506088
P         5.19476043650418    7.65771405041877    8.20672417838920
