48
 energy: -2.594062977646 gnorm: 0.000629055435 xtb: 6.4.1 (afa7bdf)
In        1.47992744504276   -1.31793880789911   12.23712827629883
In        4.39720138315554    2.26480587919420   12.37150148225991
In        4.08787744037051   -0.16798412891280   16.26160928125423
In        1.53732487178465    2.75436438174799   14.70204780734622
P         1.85637091868919    0.72545628760513   15.97131886704887
P         2.91875229527707    4.02291881327286   13.17191147826443
P         4.01314708626256    5.01082444152301   16.40072427439735
P         5.16456889609670    0.94173696985086   14.32761029392789
In        0.06870791031156   -0.60697990992020   19.69458165376394
In        2.94810236530210    2.53954427221514   19.04257149033618
In        3.06483053003335    0.72556205840326   22.48369868846707
In        1.74365545140652    4.90838708238659   21.67792370405460
P         2.13870066259111    2.90906468380201   22.98233200433206
P         2.69630479585050    4.92391390844772   19.44224785516628
P         5.01042363996559    5.19600798969219   23.45067061026145
P         4.49637461257515    1.39034707793634   20.57903211842502
In       -0.30402840374494    0.67726273723191   25.46392073230670
In        3.90574064330834    2.35868553401337   26.03609872815370
In        2.91152713577584    0.08397560266534   28.63406021314140
In        3.28994390810009    4.54615128393427   28.80427849859518
P         2.24687189202659    2.37499092601840   29.04823988274313
P         4.17090696856443    4.73439118456824   26.55118291013483
P         5.64142783172958    2.34921099774423   30.62733466032472
P         4.78797755651732    0.25861066831324   27.03410218567099
In        6.15407406993725   -0.98624396220803   13.18181327620379
In        8.02542334729709    2.66683152753032   12.72971669870178
In        7.96552687016044    0.82478435791748   16.40752250343990
In        5.36823961369288    3.15975022514217   15.51001896169771
P         6.72374145903395    2.59846689254814   17.52364413556456
P         6.59572624292630    4.34647948609728   13.72615868618677
P         9.66917633547585    4.89739981087417   16.19646054295012
P         9.10558035436502    1.17449027884701   14.30073082840497
In        5.87992402475504   -0.57839670890340   20.16513621821620
In        8.16213874676377    4.75944935709799   20.03081260883735
In        8.88132560445792    1.87211287792890   22.39207383851522
In        5.34125920296932    3.45382564064364   21.75193222019695
P         6.62043275664742    2.00172454100360   23.30642572382604
P         5.74006377361573    4.88961632650878   19.76650869086050
P         8.43501103310753    5.68080731394163   24.51230768674824
P         8.14988122912989    2.31045263156940   20.11493689276935
In        4.69565109981450   -1.66083310452741   25.52719308576033
In        9.11752773494239    2.04595565995763   26.38888196708733
In        8.57933252798513   -1.35916834687193   27.07295161394948
In        6.34398681927116    1.70097071614375   28.37128641888874
P         8.14166459375180    0.10463705236674   28.95409351201793
P         7.06307391852844    3.34680075886563   26.66401489172752
P         7.32839870591593    6.15007401208012   29.14079610579536
P         7.82286209832318    0.21784272136807   25.37325519503099
